60
energy=-82.82624215968 config_type=nep3xyz Lattice="25.0 0.0 0.0 0.0 25.0 0.0 0.0 0.0 25.0" Properties=species:S:1:pos:R:3:force:R:3
C 13.74147384 11.89484967 15.90732695 0.046357684504839576 -1.2212869886376974 -2.478724771112483
C 12.49586283 12.65890140 16.05387593 0.6643986452383415 -1.897728300937439 0.8629768670590086
C 11.37540529 11.76801062 15.81065685 -0.40779879182903517 -1.3542825486058365 -2.0980602859401967
C 11.91049007 10.51574354 15.24507484 1.6577262763967955 -0.20062735948237578 1.7533913628738231
C 13.40209411 10.52769677 15.35530276 -1.5947317472492661 1.4971171751976218 -0.026304273401762144
C 9.37529620 13.86277554 13.67490688 -0.6840297461414758 -3.035755440258659 -1.8527554386798384
C 9.03944765 12.49212177 13.17670902 -0.012716345268437882 -0.8067454172235657 -1.38411374383637
C 9.52146734 11.48758825 14.08502141 0.5322624251552537 0.5563077604349665 0.8653672797939478
C 10.20711040 12.18464398 15.15792172 0.6495368031652725 2.0014964097604686 0.3566433110877981
C 10.14928451 13.62528443 14.85165369 -0.45251598413627797 0.30875668453502675 0.5905956636842385
C 10.16245294 9.96091172 12.30896619 -1.169732420516805 0.9130369237157051 -2.699172075272207
C 11.39005861 9.23909639 11.96296782 -0.8238027386734729 -0.10359760369188921 1.3075936709274487
C 12.05191575 9.13992755 13.22604385 1.2580157528329736 -0.30783344881649644 0.4033999337869633
C 11.27745861 9.76764209 14.28148979 -0.2926104808057183 0.3913407744804412 -0.19136425266789633
C 10.05086955 10.26853314 13.67911656 0.910820593352175 -0.15457340062318503 0.21948297812898976
C 14.11631430 9.42552791 12.05297133 0.2620080898021554 -1.0274063588084188 -2.763590585110783
C 15.17744503 10.26409302 12.29815925 3.117525538829335 1.9421052251925648 2.405352719917893
C 15.19300839 10.60691984 13.73980582 0.8672248793233801 -0.19287920613524778 -1.8559104810048035
C 14.12739873 9.93094343 14.31678608 -1.7331776400097159 -0.28355231727947217 1.4555643325266276
C 13.44990024 9.22053010 13.24506930 -2.1193469434083894 -0.6062908706108713 1.8598837163866169
C 15.88891644 12.90609637 13.17305091 -0.003134030655346605 1.0398914035963875 0.6306123977835358
C 15.39045279 14.22259550 13.68605674 0.24522033676766197 -1.8827513275900272 -2.876260746898352
C 14.64991196 13.91270078 14.85993182 0.5162115109931367 1.1901975848114337 0.5154369516896121
C 14.81981568 12.51811256 15.24197769 -1.412084170735536 0.4865820168557262 -0.5851348309760395
C 15.47916715 11.88491800 14.10455269 1.069904366357049 1.0955598283216668 1.511796635974718
C 12.99204492 15.68122774 14.27580802 0.48529590716382504 -0.866047875894654 -2.762017487522029
C 11.55720021 15.52422156 14.23695038 -1.5202383612696835 0.018198656388545672 -2.2752860068183867
C 11.18841869 14.49160830 15.15762868 0.6859693087367794 -0.3309778775412849 0.23594545472542602
C 12.44227082 13.98029660 15.74349826 -2.3207777389460245 0.4344894834438931 -0.13551991321858706
C 13.49992570 14.65596128 15.10694259 1.3742051959330892 -0.6231378487055402 1.7423794566115458
C 11.52475389 15.81362880 11.70390216 0.7047615351123147 -0.2314612495343616 1.19929645169705
C 10.85085513 15.09169555 10.63793761 1.1260549365300703 -1.3282356881370714 -0.3907493333507729
C 9.75866698 14.42479119 11.24895299 -0.7757107150370828 -0.30240237423628646 -0.057616305155644955
C 9.69448489 14.75365163 12.65864418 1.2547901624932394 0.6125108508926875 1.5917388463261466
C 10.83408688 15.57760857 12.96373243 0.7808266672232768 0.9760031727513212 0.7722498839174662
C 9.43050951 13.15121738 10.82206596 0.2625987546973835 -1.2266943347018715 -0.7830499032321567
C 10.18398760 12.45006670 9.78495961 0.918396048753058 0.7048760530327038 -0.1036975396997049
C 10.37225355 11.05247892 10.17138138 -0.5185053771957584 1.5595466383813983 -1.6288782017076786
C 9.64571773 10.90243853 11.37055521 0.6684092002710444 -2.3802881108151057 1.8125424096449423
C 9.09388471 12.14031099 11.78187511 -0.5758406907811161 1.2432950465956394 2.3939774431920577
C 11.53193962 10.39316154 9.84910332 0.8887611789178934 -2.3457498589399535 0.23067283545673692
C 12.67346352 10.97887208 9.17974197 -1.206587947935269 2.31235708401085 0.605396077164132
C 13.82782429 10.49721371 9.88125607 2.616467755589571 1.1078570772682754 -0.8556550719760402
C 13.50990188 9.46623036 10.78483847 -1.1530179890104815 -0.41580006173288836 1.2409691643122764
C 12.09078879 9.34020760 10.76204056 -2.1275807246223377 1.6998417503401546 0.22767850611406132
C 14.93243330 11.35700891 10.17681736 -1.05100026937528 -1.5176212257278459 -0.10664304711182328
C 14.76886002 12.71791584 9.82109366 -0.17150344394514427 0.8970851418414983 0.3291470021190563
C 15.43103629 13.46957273 10.85242397 -0.41208350576991387 2.122272671333376 0.16889671913410698
C 15.97084511 12.59148229 11.82623408 0.27263944697904247 -0.6165138825596832 1.4747187976037077
C 15.68876995 11.22146130 11.46622329 -1.9752621389525191 0.4871169408132701 -3.4217401136858205
C 14.91720322 14.72776376 11.27700830 -0.2177664001909203 -1.2580142334026294 -0.2316714411593088
C 13.65281891 15.16539731 10.73524177 1.4226881285550097 1.289917453771629 1.032729338603494
C 12.91117783 15.86138804 11.78876510 -0.36235613851676574 -0.42953195750385753 -1.2777372860916685
C 13.64476469 15.73050066 13.01354066 -0.47108236361483147 1.4107329944015734 -0.4297397654603803
C 14.87314704 15.07149155 12.66558382 0.5140760149618859 -0.7435794159737462 2.688666657845281
C 13.07856344 14.47023357 9.73341025 -2.4342260688983135 -0.14671695648521232 -0.5221237667393184
C 13.56691915 13.23814927 9.27808641 2.7431405938758995 -1.171153916012005 -0.5741538386633874
C 12.52801358 12.37425417 8.87542743 -0.6983306916721196 -1.153347368533632 0.8056093350099253
C 11.26399117 13.11690658 9.16693548 -0.4567380140690305 -3.6787438383603948 -0.22521215670411962
C 11.61780476 14.30220511 9.71062469 0.6282203072206407 5.539208913863514 1.296485857393872
60
energy=-82.73409910776 config_type=nep3xyz Lattice="25.0 0.0 0.0 0.0 25.0 0.0 0.0 0.0 25.0" Properties=species:S:1:pos:R:3:force:R:3
C 13.68487194 11.89837020 15.76845340 0.9479492579206764 -2.410501875031877 -0.6255374025935091
C 12.53116534 12.62739222 16.00473695 -2.1184917036309847 2.745780572969543 0.5765604394407842
C 11.33590897 11.84256272 15.71758234 1.8976012078657885 -0.6409406375266838 1.3099150031241211
C 11.79195137 10.54675602 15.30320554 1.785030189304842 1.0526285701110285 1.3457338399432694
C 13.24563905 10.56585808 15.35027498 -0.1735241954449346 -0.7837719511095155 -0.5147361328489808
C 9.52423913 14.07020662 13.67141106 -3.037551431026581 -4.3142000553923925 -1.63850105971272
C 9.07885948 12.71539438 13.13451444 0.7091950504016338 -1.4471614039295269 2.4298055251818087
C 9.58839868 11.72576106 14.11621770 -1.156479893416869 -1.2304904115140105 -0.665611881426085
C 10.20863135 12.38776680 15.21665006 -0.865455294811429 1.861014115668347 -1.9343932998125226
C 10.19440166 13.82390740 14.84768750 1.3614177283905577 -0.6946892507841661 2.9482673645906092
C 9.97085497 10.07374955 12.25292419 -0.03125560085454598 0.19545388844941666 3.1148775678620204
C 11.13415866 9.30944759 12.03696226 1.2116284742837027 -1.2623884084470864 -0.5239691064926919
C 11.85377307 9.16121608 13.30083795 0.9487747999585961 -0.3735997213046102 -0.7600821973227566
C 11.17500523 9.90974303 14.28835631 -1.094348796419398 -1.6139478683403317 -0.028302727030972877
C 9.99906421 10.41873530 13.73833337 -1.9017359467813508 2.428811323649531 -2.3234501394251272
C 13.93952289 9.33768695 12.07321283 0.8072008983694346 -1.4245280832618417 1.494962721597128
C 15.16557554 10.03875619 12.34320611 -0.25951860081245676 1.6276515817040202 1.051028772182673
C 15.10667184 10.42860258 13.80486427 0.34504354604461257 -0.6156984955504399 -1.8808644252569755
C 13.93610960 9.80293667 14.38868097 0.7207110353156919 1.7587950354541515 0.9093501457112924
C 13.24914669 9.12705282 13.35255347 -1.142391407522974 -0.06935405540905726 -1.6593967194748525
C 15.88310591 12.66281213 13.08245506 0.47861861120434335 0.7678633357041025 2.8705002832973836
C 15.47820837 14.01323412 13.54415447 -1.0742746740393236 -1.0998698235835564 1.1260316963870192
C 14.70617519 13.85782865 14.79445505 2.2681335293494334 -1.2575523253897023 -0.12700712081226656
C 14.81435197 12.43916724 15.16801189 -1.1207783845114856 1.2832446960593342 -0.08500265739123555
C 15.50498866 11.70546691 14.14622297 0.20625341852211504 0.653311476514448 -0.7757961790985591
C 13.13779835 15.66289857 14.13905632 1.2091713749133204 -2.103209324065849 0.478648803135906
C 11.70289672 15.56591998 14.16985702 1.1036121080654686 0.10067377170939157 -0.332781453826918
C 11.31408223 14.57568123 15.16535345 -0.9277012918227461 1.1093382719353733 -1.1030021143815787
C 12.47642993 14.02575619 15.75791174 1.1506715980011015 -1.5503549291829084 0.008369504757327213
C 13.63547951 14.63961360 15.14295696 -0.8734774317514191 1.107040680684946 -1.2043849536845155
C 11.73756391 15.91240069 11.67658316 1.022265495555661 -0.6389398727994782 0.6354165056933936
C 11.08737943 15.18056480 10.63740783 -3.2802888197509095 -1.8019412928989702 1.067445226419036
C 9.89687096 14.50786706 11.31440491 1.4374311347473923 2.1471006198960296 -0.7827775930085034
C 9.88337668 14.92450188 12.71543941 0.9834901075241294 0.5463438009077264 -2.2915245438439302
C 11.08193892 15.62316151 12.93429271 -0.6082846814398356 2.3020383118593446 0.06139915654737782
C 9.54664970 13.25850985 10.91814860 -0.7396796528741455 -0.15234246390564968 -1.7126392690888337
C 10.18976525 12.55106164 9.84381693 1.2061615288769776 0.8011459110153791 -0.6995937437322488
C 10.23647027 11.14474320 10.12877147 -0.6747202896380907 1.1227626646939648 -0.3314330967286847
C 9.55287027 10.99850903 11.34801704 -1.2806970537818196 -0.19026060385612603 1.3324550613609514
C 9.08212127 12.29141508 11.82236167 -0.1185211651499129 0.5460244512434614 0.9876324897323486
C 11.36078228 10.41332645 9.87801710 0.47146861373274185 -2.6763160525562597 1.1421369437378937
C 12.52969149 10.99591921 9.39631265 -1.5143840613313313 2.265205430318011 -3.2613190506986567
C 13.65178254 10.41245282 9.94380080 2.697037603752984 -1.211471122002315 0.8453462752016689
C 13.25609698 9.39838425 10.88781012 -0.2611920617323012 0.5662157702248843 -0.8901407309047712
C 11.82825501 9.35709230 10.81468012 -1.6397981079029285 1.1175658304493883 1.4180056850192864
C 14.81964355 11.12333161 10.17536910 -0.02007416731364208 1.0233484600641412 0.23704313887525638
C 14.72656789 12.53396680 9.86820799 0.1738992402527084 1.6659584140236745 -1.0404979366012332
C 15.43634123 13.32760733 10.83731443 0.17246980235914477 -2.0200963791648716 0.16890305119969481
C 15.97097959 12.32425177 11.77642934 -0.2248989462887092 0.9252734786353364 0.08507214493421908
C 15.62460089 10.98072601 11.40678999 -1.7923764723268125 -0.430876177892296 -1.0442049526933668
C 14.93667931 14.52841302 11.28273439 0.6742330133027651 1.9477176596461387 -0.9191436974517102
C 13.84685433 15.25590641 10.62445803 0.300774831561117 -3.3363499933872602 -0.38056498544735523
C 13.12354149 15.89443864 11.70045082 -0.3830411270265877 0.21041036228017287 -1.3635876846476513
C 13.82240050 15.70315080 12.90871155 -0.17682869192422865 1.2186493639174345 2.0479154709636225
C 15.01398420 14.95110581 12.66559643 -0.08177463491295782 -1.012551808129444 -1.057433641353713
C 13.19480344 14.42410287 9.64968980 -1.5284980548267109 2.3095866192543935 0.800241407042041
C 13.65541277 13.17003135 9.20015639 -0.7167841629414748 -2.38162910418159 0.24184109580885113
C 12.44757511 12.30465692 8.89244838 1.741702212634877 1.8208561034189379 2.024260796303952
C 11.30277110 13.15554811 9.26599637 -1.168905308912264 -3.22406936356742 -1.2928216226597813
C 11.67815436 14.41336395 9.65314889 3.948436559284153 2.7318297546531345 0.49838233706216206
60
energy=-82.7393618757 config_type=nep3xyz Lattice="25.0 0.0 0.0 0.0 25.0 0.0 0.0 0.0 25.0" Properties=species:S:1:pos:R:3:force:R:3
C 13.64459281 11.81655647 15.76182117 -0.6239563987521999 -0.45128483876912834 -0.6755725077829542
C 12.56799693 12.72275789 15.95737959 0.3629015236557147 0.972361370772902 1.2137505710926422
C 11.33849428 12.02590178 15.85120496 0.2822313983468906 -0.3289031350000723 -0.21104436078203376
C 11.59605716 10.68656963 15.40394706 0.3166818425952863 0.4313833559531306 0.4928522555442778
C 13.01990737 10.59811965 15.35868108 0.49405520858330426 -2.5851337383575763 0.09439941834815489
C 9.71705870 14.38207208 13.63801664 -0.4545665406219448 -1.5503761143358732 -1.5069261772751865
C 9.17113514 13.07105853 13.21187332 0.23646533509229317 0.8217106820165941 -0.28041165796617334
C 9.56967788 12.09086586 14.19733198 -1.3485643151488975 -0.9153443355176891 -0.6826580513755257
C 10.34465716 12.69690794 15.25129312 -2.775340245332946 2.54493826118865 -2.212934598593443
C 10.41711855 14.13802403 14.83748529 1.1482809654099533 -0.8567113625990107 2.0005521921914564
C 9.62793220 10.40937697 12.36517337 -0.6389078264027432 -0.06726437376525292 1.9665801544220616
C 10.63409350 9.42289323 12.18185914 2.287418828568886 -0.04822834289892187 -0.7339748893608476
C 11.36290454 9.24939574 13.43947101 2.6391575286625435 -0.42359391328188656 0.26745768719251484
C 10.79944162 10.09310036 14.43921346 0.08107258619509068 -1.3008922862776218 -0.5027251285724672
C 9.71827802 10.74996314 13.79758584 -0.5770787993918799 2.4753411785590265 0.15552666252957897
C 13.47343221 9.12253952 12.19934028 1.9371078633845964 0.05798491300975912 2.165785249180388
C 14.71768353 9.78859110 12.43443557 1.5279935737856896 0.2642807338277663 -2.0434587905970596
C 14.83747864 10.14890358 13.80492385 0.279020276502395 0.46294015028274954 -0.6047065568114808
C 13.63312615 9.70378094 14.46703926 -0.37630831833690204 1.2790358898614846 0.1575274155735427
C 12.81555717 9.10273388 13.47237252 -3.527819496974632 -0.8214922407470124 -0.8787878593519546
C 15.95766570 12.24694934 13.09960193 -0.28124624912091645 0.5730282272297272 -2.3572039471971586
C 15.72675411 13.66217529 13.46704028 -1.3590782953043286 -0.09145159503408998 -0.8227825271191374
C 14.94897598 13.60097212 14.68710755 0.35871717796319974 -0.9563886747699496 0.3584274336979387
C 14.74749573 12.21518301 15.06468624 1.6309348841809324 0.7951540172340299 0.12218020847526206
C 15.39200770 11.39829559 14.07935869 -0.22784755767761244 -0.5534077249698016 1.0495634702312218
C 13.56855058 15.49157846 13.99430336 1.5818835019081907 0.11937543253518443 -1.162129088090224
C 12.16885209 15.70750442 14.02848122 -0.32837586613604974 -0.9774048404399939 1.679273135512697
C 11.61061787 14.79448505 15.09575289 -0.8291201683649775 1.296703680487394 -2.55718003979715
C 12.67825069 14.03491210 15.54628794 1.9534036986832912 -1.0037522241835486 1.8908877894664538
C 13.92078313 14.44931521 14.95723422 -0.7496595940585236 1.911344940845236 -0.9182229144292091
C 12.22784788 16.10240398 11.56931080 -0.6779549244985732 -2.50019904529577 0.4925932163290496
C 11.47367065 15.25560385 10.64999744 -2.047754949173298 0.5548742479324674 -0.7136853945088416
C 10.26728445 14.82052729 11.26963831 -1.4861943752172724 -1.4362387509777774 -0.31978541713756664
C 10.26486820 15.20872033 12.65990976 -0.41178268261681034 -0.6003692771113973 -0.8796185839429251
C 11.50653892 15.86133107 12.84895195 0.5934702080073059 2.164410744608907 -0.502069354183086
C 9.63699546 13.58535488 10.85671532 -1.0465812668079064 3.0247238132416387 2.6431157838516306
C 10.11390524 12.77958135 9.87670984 3.3157656961186825 -0.8252594155673997 -2.7007138441764753
C 10.01942556 11.36515453 10.22298662 -0.01703985150860512 0.6063698658089748 -0.5196209038319477
C 9.25853831 11.36353175 11.41774675 0.8092028517329724 -0.9484385741944841 1.383443248486631
C 9.08243815 12.73312603 11.84946321 -0.6153337107323256 -0.10793321304529242 1.8116636153995282
C 11.10968098 10.50375204 10.04354367 -3.4346315372317524 -1.0055014564781042 0.6728815023775774
C 12.26665287 10.91019746 9.42532303 0.5550080451221471 0.9031692878370976 -0.7096851610149808
C 13.32689748 10.23722256 10.06214060 1.2685632705838843 0.01250968739458989 -1.7269390567069165
C 12.84184464 9.39185736 11.05117709 -1.5496661081930492 -1.6409389862873551 -0.8626244846277276
C 11.43869973 9.48181183 11.00810905 -2.769179488695126 0.6451558334669019 0.9170454874939404
C 14.51664126 10.86110264 10.17911283 1.1036858532428415 -1.7242048334284519 0.7504115843759006
C 14.70381252 12.19428336 9.80197588 -0.6987585239270959 2.593464911464375 -1.4725341268358665
C 15.52058516 12.83518772 10.76412968 -0.24000138892858328 1.8970886504871822 -0.303839375733782
C 15.80754772 11.84417851 11.72213282 2.0857649481116187 1.1032045408122244 3.4931888935165216
C 15.27065317 10.58226886 11.38034784 -0.8387593865954246 0.020853601390733605 1.307814426268145
C 15.27467270 14.20279352 11.10551532 0.20812420864613473 0.2382279296587039 0.8927779436228976
C 14.23824664 15.02344896 10.51808896 -1.1431178630926848 -1.603121573789443 -1.0838334163816428
C 13.59654895 15.89694601 11.53215795 0.6409316252677411 -0.9820455828979002 -0.05082174568016421
C 14.26779654 15.59674649 12.75182157 0.7195997697297428 -0.6051386736653389 1.9157941930168034
C 15.34041565 14.63461883 12.49201109 0.48931332696022395 -1.608085802241853 0.8025775943687607
C 13.42918035 14.29895712 9.61403654 -1.4664832764766795 0.9228779614711736 -0.20335558232007095
C 13.66793164 12.96670946 9.20999880 0.30451285416698115 -2.690546630475777 0.9753984603008027
C 12.39404835 12.22395442 9.12570162 0.45737278710263835 3.426256607151147 -1.6888192485305866
C 11.32741317 13.23064438 9.32219839 -0.2672122935632703 -3.0802699797414275 -0.7869970955864922
C 11.92394427 14.43421768 9.63085991 3.1461498790168236 2.174545891249574 0.9940941608307661
60
energy=-82.06358832832 config_type=nep3xyz Lattice="25.0 0.0 0.0 0.0 25.0 0.0 0.0 0.0 25.0" Properties=species:S:1:pos:R:3:force:R:3
C 13.58765361 11.73413121 15.74172315 -0.1986449657833854 1.0791391305955003 0.7315016410480766
C 12.68322224 12.84565004 15.92436859 0.7040759150457111 -0.9944032465952567 1.5856503870216352
C 11.38190384 12.33021583 15.90650958 -2.1500283616161497 0.4607453306252525 -1.1839493491085331
C 11.46936169 10.91591026 15.59346165 -3.9190751297195234 0.4756158704872702 -1.638980400068485
C 12.78833494 10.60945474 15.45390038 2.576418367901391 -2.768561885543565 -0.3296060851350724
C 10.06243839 14.70574610 13.54573990 -0.06060755754427903 0.7875114462644855 0.2727536446978496
C 9.27587448 13.58323828 13.20219738 -0.6403647179405825 -0.9829796746290627 0.9428746013217931
C 9.45316068 12.56389150 14.25774571 0.1473947680411072 2.207524114917709 0.28712578538156264
C 10.39291509 13.10670238 15.27619391 -0.2444629392783984 0.04858589607119911 -0.39341609917681486
C 10.71976214 14.45540855 14.85626547 -1.5183164795061703 -0.8150299530534043 -1.7225785789989363
C 9.32296469 10.84953493 12.52903662 -0.40536463405944945 -1.1433971330928439 3.1105454125777943
C 10.25798577 9.84100997 12.36573870 1.5408430312641215 -2.8317352086362444 -0.8690377507139276
C 10.92144034 9.45777398 13.64376260 1.7033141354480024 0.9993156823295388 -1.3567868149686466
C 10.56531080 10.42653290 14.60827230 -2.348523149107052 0.4287026706635925 -0.29063461771409094
C 9.42112419 11.27383899 13.90300928 2.804633663248104 -2.0132634400896268 2.430644170295067
C 12.97652474 9.13121057 12.28882437 0.36501713396056445 -0.9104118596027381 0.011817300387488735
C 14.35865483 9.53168751 12.44592092 -0.6684330711357047 0.7863714596995731 -1.494236042144653
C 14.53511634 9.92359526 13.79549460 -1.494550637119146 -1.0776241083189904 1.2216488076155654
C 13.25684982 9.66514542 14.52633765 0.006910269306530329 0.19145056182760228 -0.9187365017810942
C 12.31114023 9.12565102 13.56842920 -0.3429497668738254 0.7821409183907813 0.269626721758341
C 15.96191370 11.70404687 13.08780000 0.14907658792037962 2.7011817050075604 -1.718337327571052
C 15.88866510 13.15392728 13.39762031 -0.4496093450357487 0.5860054358195053 -0.03163016827843498
C 15.12722943 13.21765278 14.63568218 -0.9450310841326819 1.659383152096797 0.48600977396456896
C 14.78853738 11.92113006 15.14247297 1.7024964065000618 0.17285883600467097 -1.8411938028966393
C 15.30683522 10.99025352 14.12967651 -0.078057565641884 0.13789935085505053 0.5867007578545299
C 14.00974023 15.26865436 13.80558539 -0.11487348867097236 0.2505674703578144 0.7598646458303583
C 12.59827773 15.71713973 13.87567211 1.9715234981654322 -1.1463142213809108 0.781293668869052
C 11.98481118 14.90532609 14.95914845 0.697428619159474 2.478906528378763 -1.2798000053168839
C 12.99038205 14.10096958 15.47677587 -1.9612002885846973 -1.5272814403612454 2.7891180679942114
C 14.15645195 14.24038186 14.84882489 5.497865251221738 1.551399471640908 -3.669816113916862
C 12.74968123 15.90968466 11.41099250 -1.4499020663354119 0.1741665622418724 2.077312797936078
C 11.76696781 15.32771314 10.52888351 1.3527674941233139 0.6647122838956259 -0.5055271175588195
C 10.54564778 15.05035266 11.18004937 -1.7440776225332202 -0.32734582637039 -0.014779467111439824
C 10.62773402 15.47886811 12.52508328 0.7197965829804303 -0.18174049413831123 1.0148754761920709
C 11.98085787 15.99549614 12.70190242 0.3534703980282754 0.10052596895397432 -0.9989616161758907
C 9.76858723 13.94005603 10.84388540 -1.8746705961699726 -0.7095197953542286 1.7869682891937102
C 10.18062785 12.97379473 9.88666827 -0.8176734649609427 1.7241252693860671 0.30101393095749374
C 9.72113557 11.68232245 10.28088462 0.5379084105916875 -1.5191113892498402 1.1325929277573648
C 9.03166364 11.72850874 11.58658864 0.27756139073626157 4.239343571155305 -3.819705486989207
C 9.01457489 13.17885015 11.90243492 1.4323130256148449 0.7590040209297931 -0.5022206972039266
C 10.64745374 10.66375549 10.13320766 0.7688900732449611 0.4682846847063618 -1.4413194124359758
C 11.95871655 10.90265314 9.50412232 -1.3732234099402312 0.3661116274314989 -1.038043042199571
C 12.90858622 10.05566344 10.08387033 3.0890535560242363 2.352019869535053 -2.3751526634369444
C 12.30326544 9.41262098 11.11696323 0.010991571087318975 -2.6419553114513454 2.1985452820606026
C 10.91752749 9.70162902 11.11765632 -1.7381810537973708 0.023908563622928168 2.5600524792583177
C 14.24530086 10.57001582 10.13784401 -0.8845657700952941 -3.8351062673245786 3.3248607458608745
C 14.62440136 11.83220624 9.80000499 -1.4669893206145495 2.277557165649954 -3.243802721204016
C 15.55373094 12.44265210 10.62902615 2.2737123910713817 -1.8613773894798262 3.585943315774356
C 15.78041039 11.42694969 11.71906035 -0.5533781245921747 -0.611518726352258 0.09455991304530845
C 14.91217854 10.31205088 11.40932492 0.9508457092955901 -0.7296929655743953 0.16669839219477298
C 15.56535116 13.75175281 11.01563482 0.37281256527109585 1.2730429343061012 0.8158872403477238
C 14.60554274 14.63183161 10.44633383 -2.045160662402505 -0.7185282343813 -1.7481730208595634
C 14.10692862 15.56584762 11.41493676 -0.8799223543480341 0.089916305290889 -0.37344428283005326
C 14.78189855 15.27263096 12.63624109 0.20773716108146392 -0.8381935412610498 1.37187289588808
C 15.79184019 14.20380438 12.41069636 -1.6496353758204634 -2.0602955429991816 0.7171754392057076
C 13.64851540 14.04448821 9.58551890 -1.6514820504424976 0.3697403897668343 -0.7129050974699588
C 13.63280241 12.62538958 9.22976089 2.1829553642836994 1.8785788865231634 0.37290811565670834
C 12.34269996 12.15480121 9.08406140 -2.8612437395541717 0.8881715534724128 -0.1039956784145654
C 11.37884383 13.26742383 9.33807824 3.2537252423907836 -0.8298076441109471 -2.042154551954981
C 12.20544903 14.47100436 9.57051584 0.8736753999940471 -2.361175246464356 -0.12931304715710576
60
energy=-82.24305970004 config_type=nep3xyz Lattice="25.0 0.0 0.0 0.0 25.0 0.0 0.0 0.0 25.0" Properties=species:S:1:pos:R:3:force:R:3
C 13.54786170 11.64070638 15.85341070 0.5144687589749318 3.454185676791209 -0.1690985358035161
C 12.79232277 12.91052206 16.02826473 0.593003986580257 -0.3065299605209742 0.14788896340706484
C 11.39518483 12.63470827 15.92378914 0.5559027092036187 0.3633515737917037 -0.28144462173003587
C 11.33149323 11.20706850 15.63540233 -2.694840201638574 1.0773230597557117 -0.5688713709279368
C 12.61051310 10.65480349 15.60217168 0.8568798587948728 -3.1219774182721682 -1.639758492388919
C 10.30775442 15.09212885 13.50937752 3.4734706500131987 2.7576520460204774 0.5940710421358983
C 9.42980454 14.07957407 13.27561001 -2.104446708407482 -2.677013518084489 -0.8006498999449272
C 9.53235317 13.14852153 14.41622601 -0.11662028384106281 -2.290139530524098 -2.2858442105078223
C 10.59981969 13.60312160 15.29018157 -1.2233704518555155 -1.2689053410144002 0.18689305059416003
C 11.07315125 14.85725686 14.77725470 -0.7158014178246365 -0.41092297337237504 -0.6478465817308401
C 9.15063035 11.34602190 12.68933395 0.011998789832236968 -0.954593250261475 -0.36293904718491743
C 9.89363698 10.17517622 12.42866085 2.143856952893329 -1.7263064082130573 0.7532298626395053
C 10.67725672 9.84342625 13.64748894 -0.785243279752968 0.5162233827886297 0.6941922243235329
C 10.39290023 10.81782017 14.69617222 -2.0001219019636403 -0.21455566213441934 -2.247738481144516
C 9.41419644 11.74794079 14.03658353 1.543652314790448 2.267297073225688 2.7840379636717945
C 12.54388907 9.07763409 12.31503036 -0.002769542470328368 0.30095794627925987 -0.05438021763869574
C 13.94604033 9.34755312 12.45233780 -0.591201445170927 -0.9349603873102633 -0.7965956756496877
C 14.21645040 9.61302455 13.82340616 1.0234340533051485 3.6726661592374654 2.2998404844065323
C 12.92837174 9.68203506 14.61703698 0.42290630441167437 -0.6269601561424918 -1.8514545819800765
C 11.93026361 9.28817013 13.62189699 0.12316852090937383 0.27438120743071276 -0.1813178296620697
C 15.87533471 11.30214880 13.06204601 -0.11794307268140894 -1.9803239422245493 -1.9634283281796856
C 15.89795272 12.63782329 13.31279660 0.4769163646730074 4.74706922272119 2.428563057331411
C 15.24326832 12.95949329 14.58786589 -1.1444995173532342 0.752306524768656 0.1589274900998344
C 14.66307794 11.76612363 15.05578923 2.8849842911584185 -2.6531642934669635 -0.35119482146213726
C 15.18725664 10.69398433 14.11021934 -4.426244728735332 -2.263481275332533 1.7143745355934887
C 14.41365809 15.10513775 13.72552926 0.396076367450958 -0.29524424885192535 1.1711018084841633
C 13.11461912 15.69457249 13.77786667 0.7029143298452557 0.14462538033312194 1.8035087925876327
C 12.41452733 15.16039011 14.90201622 -0.17707565702979242 -1.9405780838719613 0.6589490516690133
C 13.27557097 14.09921886 15.50279797 -1.0831029771132958 1.276927475238173 0.501907040385899
C 14.47909366 14.13478464 14.80718375 2.6105738065248545 -0.6314379805541755 -1.643829820439609
C 13.14304261 15.71669957 11.35132154 -3.358350536183066 1.443888572716837 1.5848348061757067
C 12.04548972 15.30663857 10.48977070 3.7801819738732982 -0.4372390759156581 -2.5416162595631127
C 10.83274430 15.28409204 11.11367752 -3.0171735194227653 -0.9325292215855882 1.1045010068704781
C 11.04433419 15.68724297 12.46367362 -0.3528548999249162 0.005523773590256063 1.1892539755816938
C 12.45601597 15.98608769 12.66297570 -0.38294161156635415 0.3406150578887554 -3.6068843236245183
C 9.86665866 14.26705641 10.81886979 0.20886325541401168 -0.22899976877757802 1.2991493816455557
C 10.18366106 13.22272680 9.84619433 0.00887630686553548 1.6509857202289924 1.0548421969900532
C 9.61126246 12.00478661 10.34027390 0.29607340842452223 -1.2199192072501666 -0.3076134316277581
C 8.99188288 12.19330145 11.61662163 0.01297165802686834 3.017824191849378 0.6091363699263097
C 9.13748068 13.62349537 11.94413551 1.0821326190387344 0.9166827509963653 -0.2252497675221388
C 10.30284697 10.82705630 10.11958971 2.3116149551728453 -0.6359603264303295 -0.8000797272601197
C 11.64284216 10.81736753 9.38623152 -0.5038426487677898 -0.1187855315132572 1.1298260523754473
C 12.61380461 9.87228155 9.99658394 -1.24321205114577 2.322173395849758 -0.33082179144687
C 11.90117738 9.43547300 11.12218457 -0.9941766772852908 -2.218610740023505 2.3649644076883245
C 10.49875106 9.90915788 11.19162297 0.3325109058634992 0.23672536512412132 0.30492822318754975
C 13.93431364 10.31275338 10.17674065 0.6387738592480534 -2.5510334561312833 0.9532198476767169
C 14.52397662 11.52466971 9.75969813 0.286819224802631 -1.5343161947642865 -0.3250332177553625
C 15.57879690 11.91155643 10.69809072 -0.8669451090546109 -0.7243103873517225 -1.3477581615860215
C 15.62776968 10.94276186 11.73356791 -0.5663266755602445 -1.7255642990640554 -0.821027130940511
C 14.62554007 9.91242960 11.36069218 1.0235338833271594 0.6131577784516745 2.2756336730938584
C 15.67034255 13.23227944 10.97074597 0.2457958013535943 1.2367810979693519 2.0691809266834014
C 14.72944075 14.11588466 10.38782194 -1.2743388427855213 1.8343619110362421 -1.0906953645767339
C 14.37510596 15.19413913 11.30927439 2.16042109012016 -1.7836464429466403 0.2573467649176296
C 15.05420007 14.84913828 12.55124616 0.4326164247457763 0.05330487148728447 -0.08410127402012665
C 15.86379897 13.64543980 12.39281172 -0.6815717757973218 0.38818112599520654 -2.910246238350747
C 13.72344115 13.71673114 9.51467350 -0.07561031410776176 1.1581169604279433 -0.18140366243390632
C 13.61974788 12.32951437 9.16277262 -1.0094598407122535 2.059733488428958 0.29076825728414923
C 12.19225390 12.02227972 9.11711161 0.24799861210528112 1.5411495538596562 -1.775948155190617
C 11.45669927 13.26616684 9.29781896 0.13527238581336953 -0.1885876374297132 -0.5209350378361829
C 12.38989267 14.36117214 9.52811548 -0.02884292187695069 -1.8272831331799628 0.33313690376590055
60
energy=-82.60699366882 config_type=nep3xyz Lattice="25.0 0.0 0.0 0.0 25.0 0.0 0.0 0.0 25.0" Properties=species:S:1:pos:R:3:force:R:3
C 13.47168121 11.72218180 15.76966654 3.9978441923699046 0.3108666234642062 -0.9038933872342204
C 12.86134749 13.04800898 15.92973049 1.2460243754903726 -1.4432748008461747 0.5666229302829802
C 11.49016174 12.82213844 15.79027436 -2.3643226056867648 -1.2647586511882025 -0.1873063272090838