 -1.1517628e-01   1.3503774e-04
 -5.1800364e-01   7.0257804e-05
  1.1203224e-01   8.2106865e-04
 -5.4900455e-01   8.4190169e-06
 -2.2438068e+00   4.2816428e-06
  6.4983511e-01   2.6148639e-06
 -2.8783965e-01   2.2791143e-04
  1.7862309e+00   5.5903591e-05
 -5.9788847e+00   3.0219066e-03
  1.9396107e+00   5.7453068e-04
  2.1641133e+00   1.6265456e-04
 -2.0963423e+00   6.2485196e-04
  4.1271608e-02   7.0198953e-06
  3.9964728e-02   1.6737236e-05
 -1.4971951e+00   6.2895619e-04
 -1.2105283e+00   4.6110414e-05
  5.7841480e-01   1.3435021e-04
  3.6219375e+00   4.0789157e-05
  5.8901823e-01   2.2456847e-04
 -2.6674650e+00   1.0865958e-04
  1.0867146e+00   2.2309283e-05
  7.0160751e+00   3.3453041e-05
 -1.6526279e+00   1.6693573e-04
  1.1430788e+00   1.9485973e-05
 -1.6156000e-01   1.0473509e-04
  2.1075935e+00   1.5777719e-04
  7.3855203e-01   1.3767469e-04
  1.7817363e+00   1.4582313e-04
  2.3381774e+00   4.3286142e-04
 -3.3264523e+00   4.1346080e-05
  4.8593950e-02   8.4269586e-06
  2.0733962e+00   9.1019079e-05
 -6.5226221e+00   1.8620658e-05
  3.2406327e-01   8.6748635e-04
 -1.5043100e+00   7.6288697e-03
 -1.8728929e+00   7.2743758e-05
 -9.4330296e-02   2.5697981e-03
 -2.1996691e+00   2.7290348e-06
  1.6644711e+00   1.0427985e-04
 -1.7609371e+00   1.4783042e-02
  1.8696029e+00   7.0708394e-03
  1.2422752e-01   7.8075398e-03
  1.4768332e+00   1.4131402e-02
 -1.1435069e+00   5.9218823e-05
  5.0799187e-02   1.1216938e-02
  1.7093626e-01   1.7987099e-04
  6.0185546e-01   1.6304575e-02
 -3.3513436e+00   4.2318916e-06
 -1.7811328e+00   1.1388203e-03
 -2.5098455e+00   2.9743396e-06
 -2.5246894e-01   5.9696708e-07
  6.9626522e-01   7.0002547e-04
 -4.1573782e+00   4.5524433e-04
 -2.4798136e+00   7.9894689e-04
 -4.2417650e+00   1.1726937e-05
 -6.8688929e-01   4.8191676e-08
  1.3568619e+00   6.2037211e-06
  1.6929933e+00   1.2339249e-05
 -2.0426275e-02   1.1111817e-03
  1.9217262e+00   5.9409194e-05
 -1.4074764e+00   8.9223926e-05
 -1.5623457e+00   1.3858914e-05
 -7.7956576e+00   5.3292577e-04
 -1.8143877e+00   7.3727674e-04
 -1.4610791e+00   1.2498574e-03
 -3.0860682e+00   4.0658950e-05
 -4.6803987e-01   3.0637038e-04
 -3.1890645e+00   3.0073168e-04
 -2.5143435e+00   4.5782184e-05
 -9.5296973e-01   5.5091183e-05
 -4.8406059e-01   9.7875636e-06
  2.3689930e-01   5.8002523e-05
 -7.4465108e-01   7.1855538e-05
 -2.0933318e+00   1.6519929e-04
 -1.3071827e+00   1.4794145e-04
  8.6309683e-01   4.8008842e-05
 -3.2172360e+00   3.1013877e-04
  2.1684356e-01   3.5163892e-05
 -1.0274061e+00   4.9156864e-04
 -2.3156271e+00   1.6442074e-05
 -3.3806441e+00   1.2490120e-03
  4.1777037e-02   2.4702040e-02
 -1.3405626e-01   3.5053518e-04
 -5.8034239e-03   3.9902158e-04
  3.0095243e-01   1.7972665e-04
 -4.4808221e+00   6.4872304e-04
  1.2167670e+00   2.5159321e-07
 -6.0104191e-01   8.5388599e-08
 -1.2420508e+00   1.3638816e-02
  9.9161941e-01   2.6234260e-04
 -2.9732129e-01   9.8936528e-04
 -8.0883764e-02   1.3441478e-03
 -1.4281660e-01   4.7003645e-03
 -1.8653940e-01   3.3488641e-03
 -1.0495435e+00   1.8805696e-06
  8.2401425e-01   5.8000378e-06
  2.1544092e+00   3.8374978e-04
 -5.9473246e-01   6.6373136e-06
  3.6493224e-01   3.6078336e-04
 -1.3811400e+00   9.9002896e-04
 -1.0299259e-01   9.5798623e-07
 -7.4959815e-01   1.3752095e-05
  7.4509442e-01   2.2036950e-04
 -5.5955368e-01   8.5705360e-03
  9.4688535e-01   6.2392635e-04
 -5.6553388e-01   1.0700983e-03
 -2.3301938e+00   8.0247504e-05
  1.8957451e-01   9.3269431e-05
 -2.6109080e+00   5.4295163e-04
 -1.9966254e+00   2.1247719e-03
  1.7618318e+00   1.2944429e-04
  1.7407399e+00   2.4226279e-04
  2.6000726e+00   5.8610331e-05
 -7.2327089e-01   5.6122653e-06
 -1.2193549e+00   3.1174056e-04
  6.4670086e-01   1.2285407e-05
  1.0444510e-01   9.7203784e-04
 -4.5049956e-01   2.6217524e-06
  6.8632489e-01   9.4050265e-05
  9.3419170e-01   5.2887094e-06
  1.3543178e+00   1.3555864e-05
 -9.4103299e-02   2.1449875e-03
  2.4376729e-01   3.9117617e-04
  8.5759485e-01   7.0675706e-05
 -1.0150926e-01   8.1050666e-06
  1.2073146e-01   8.2589186e-06
 -1.9393820e+00   2.4099951e-05
 -4.7277525e-01   2.8648942e-06
 -1.7354814e+00   1.6772027e-04
  2.2581296e-01   6.4345873e-03
 -1.6418376e+00   2.3429548e-05
 -1.0141352e+00   3.4416641e-06
  2.3934305e+00   2.6654790e-03
 -1.9170009e-01   4.7902529e-05
 -3.6390693e+00   3.6531910e-05
 -4.2443785e-01   7.2332029e-04
  2.9262608e-01   3.0021442e-04
 -1.1823182e+00   1.9888087e-04
 -3.4715846e-01   3.8276423e-02
  3.5394761e-01   1.1335031e-02
 -3.6123461e-01   9.3626156e-03
 -1.5065325e+00   9.1667927e-05
 -7.4254043e-02   1.3528503e-03
  2.1981492e+00   3.4441919e-07
  9.4522849e-02   1.4812545e-05
 -8.8088799e-01   6.2625413e-04
 -5.2592474e-01   2.7444289e-04
  2.0354098e-01   2.0359785e-04
 -1.6753024e+00   3.8034085e-04
 -6.6738194e-01   9.1446727e-04
 -1.5589195e+00   1.9966213e-03
  4.2608666e+00   5.2182288e-03
  4.4041523e-01   1.0707239e-03
 -2.2376990e+00   3.8117083e-05
  6.9867665e-01   1.1494836e-03
  4.3786749e-02   2.1530963e-03
 -1.2179704e+00   3.0597272e-05
  2.5533146e-01   5.5969587e-05
  4.7224951e-01   1.6045757e-03
 -1.0856935e+00   9.0332347e-04
 -2.2853999e+00   4.3708653e-05
 -1.0393285e+00   1.2602282e-03
 -2.1402707e+00   3.5424210e-04
 -4.5376185e-02   4.2362924e-05
 -5.7606709e-01   2.8134449e-05
 -1.6273090e-01   2.2232010e-05
  1.5482601e+00   1.2652716e-04
 -8.1032509e-01   1.1776887e-05
 -2.1509120e+00   3.1098691e-03
 -3.7940148e-01   1.4523549e-05
 -4.3924671e-01   5.2032975e-04
 -3.0685449e+00   8.2556662e-06
 -1.2563972e+00   4.6168199e-05
  1.4264032e+00   1.9126051e-07
  6.8388897e-01   1.7955769e-03
 -1.0424702e-01   5.7197036e-04
  1.2166965e+00   6.8780268e-04
  3.9635247e-01   1.7531876e-02
 -2.6736293e+00   4.7247936e-03
  1.3495713e+00   1.8097900e-03
 -3.2830651e+00   4.6861105e-06
 -2.0412962e+00   8.5847396e-06
 -5.5777490e-01   4.6578497e-02
  9.7311866e-01   1.0554771e-01
  1.1641811e+00   1.9614091e-02
 -1.3975935e+00   9.2023826e-04
  6.8363619e-01   2.7005367e-02
  9.5574033e-01   9.1248006e-03
 -2.2584087e-01   2.1350845e-05
  5.2738976e+00   1.8563456e-05
 -1.0440134e+00   3.2916595e-04
 -6.6061151e-01   5.0551103e-06
  1.0412717e-01   1.1769330e-05
 -6.6506666e-01   3.7126967e-05
 -6.4549446e-01   5.1010615e-05
  1.4652404e-01   3.9777544e-05
 -9.3721855e-01   9.0279076e-07
 -5.6592264e+00   3.5310880e-04
  6.2187159e-01   9.6168020e-04
  3.6593025e+00   1.0133933e-03
 -1.7177464e+00   1.6990057e-06
 -7.2879273e-01   2.0979287e-04
  2.0915227e+00   3.8514784e-04
 -8.4855968e-01   2.8800650e-05
  3.2347104e-01   2.0577032e-03
  2.4888000e+00   5.0619919e-06
 -2.3689892e+00   2.4087396e-07
  1.1537422e+00   6.4661994e-04
 -3.1454682e-01   3.1940501e-05
 -1.7750639e+00   4.1939222e-04
  2.2757285e+00   2.8246744e-05
 -5.0230362e-02   8.9619039e-07
 -6.4161402e-01   2.3214616e-06
 -9.5684803e-01   1.1529544e-04
  1.9809552e+00   1.1470278e-04
  7.4228086e-02   5.3625752e-04
 -8.5402828e-01   1.2230204e-03
 -3.1648276e+00   2.8237545e-07
 -1.7986561e-01   1.4572628e-07
 -2.5128131e+00   7.5482391e-04
 -1.1464052e+00   7.0757807e-05
  1.1734700e-01   7.0679985e-04
 -1.7665541e-01   3.0095882e-03
 -1.1359119e-01   3.6454326e-04
  2.3710201e+00   5.3201034e-04
 -6.7049764e-02   1.8585938e-04
 -5.1228595e-01   5.7225074e-03
  1.8479247e+00   1.3234410e-03
  1.0538042e+00   6.2874395e-05
  3.2876289e-01   1.7415069e-04
 -1.6634281e-01   1.7710076e-05
  7.1307164e-01   1.7890266e-04
 -1.2369766e-01   2.2697668e-05
 -1.1334350e-01   1.2095145e-02
 -1.1804251e-01   3.9548114e-02
 -2.3090513e+00   4.8654092e-05
 -1.2218462e+00   1.4634061e-04
 -3.5480428e+00   3.2042726e-06
 -5.6218141e-01   4.9782816e-06
 -2.0869365e-01   1.5951626e-05
  9.9545932e-01   1.6700612e-04
 -6.6809505e-01   3.1737061e-05
  3.7300324e+00   1.4582301e-03
 -8.3192945e-01   2.1260009e-04
  2.6050538e-01   1.1665399e-05
 -2.0059071e+00   9.0181900e-05
 -2.8162363e+00   2.0299817e-04
  1.1019140e+00   1.7282773e-05
  2.0637481e+00   1.0072460e-04
 -4.6041482e-03   5.5614475e-04
 -1.3535140e+00   9.0002395e-06
  4.7105825e-01   1.9964037e-04
  1.2515604e-01   9.2689901e-05
  1.7155422e-01   1.9663814e-03
  2.4253743e+00   3.8881664e-04
 -2.9367876e+00   4.3947028e-05
 -3.2591052e+00   2.0249082e-04
 -8.1791306e-01   2.6838822e-07
  1.5935730e+00   1.3496223e-05
  1.4761373e-01   2.4689795e-04
  6.2530726e-01   2.1589725e-05
  9.6598566e-03   1.8621911e-06
 -4.2952710e-01   4.8507965e-05
 -3.0117931e+00   6.5078448e-06
  5.5989593e-01   1.4402247e-03
 -7.9614532e-01   1.1106354e-05
  5.2842516e-01   2.4593573e-05
 -2.8435376e+00   3.2148837e-06
 -1.1077404e+00   3.4850757e-08
  9.9043232e-01   6.0576876e-03
 -5.6021076e-02   2.0406928e-02
 -1.8245925e+00   4.6500769e-03
  1.3830927e-01   1.3980892e-04
  6.1349648e-01   7.0602871e-03
 -3.3898327e-02   3.3706514e-04
 -1.6799560e-01   2.1993703e-05
 -2.5618607e-02   1.6781318e-05
  4.9768150e-02   9.2262094e-04
 -1.3950020e-01   1.1049340e-03
 -1.2253675e-01   8.0152526e-03
  1.9091877e+00   2.8590213e-03
 -4.4575468e-01   1.0274609e-03
 -3.3234996e-01   3.5487494e-04
  4.1508254e-01   5.8820198e-05
  2.2936386e-01   2.6087035e-04
  3.6689663e-01   4.7055895e-05
 -1.1499789e+00   3.2914666e-04
 -2.4352379e+00   3.2396725e-05
 -5.3430176e+00   6.9716182e-03
 -1.4914105e+00   4.0927757e-06
  7.5710124e-01   4.2972448e-03
  6.6347176e-01   1.1495531e-04
 -3.2929680e-01   1.6642197e-03
  2.2574531e-01   3.4699580e-05
  1.3945749e+00   2.2652946e-04
 -1.5029138e-01   2.8984228e-05
 -1.8127754e+00   7.2933879e-05
 -2.0541894e+00   9.6018764e-04
  8.0036551e-01   4.0542782e-06
 -1.7521837e-01   4.0637674e-03
 -2.7873521e+00   3.0966967e-04
  2.1030860e+00   2.9044359e-06
 -1.6053807e+00   1.9069054e-03
  1.9346915e+00   1.5007144e-04
 -1.3401595e+00   5.4157950e-04
  3.4020319e+00   1.1529170e-04
 -1.7025536e+00   5.8101688e-04
  1.7408439e+00   3.4345299e-04
 -2.2036393e+00   3.8355286e-04
  1.0207009e+00   3.2315601e-04
 -4.9222431e+00   9.4184443e-06
  2.4728885e+00   4.9631133e-05
 -4.5232412e-01   5.9417092e-05
  2.4604950e+00   5.7968183e-04
  2.7504805e-01   2.7465152e-05
  3.2388508e-02   4.5997426e-06
  1.8166442e+00   3.6831686e-04
  1.7314587e+00   8.0775743e-07
  1.0498401e+00   7.8038727e-03
  1.5238038e+00   1.0260355e-03
  3.6698928e-01   6.1600469e-04
  2.8802843e-03   4.5646899e-03
 -6.7929429e-01   1.1976110e-03
 -2.3603685e+00   4.4875583e-06
  1.1569332e-01   6.0304645e-02
 -1.9036782e+00   3.5783623e-03
  6.4648636e-02   1.3430983e-02
  2.3172654e-01   3.3925727e-02
 -4.8182547e-02   6.8296371e-03
 -6.0751867e-01   3.5476107e-06
 -1.0060265e+00   1.5322823e-07
  1.6321555e+00   3.3177781e-05
 -5.6287855e-02   1.1776336e-05
  2.8643984e-01   2.9162344e-05
  3.3667564e+00   3.6920806e-05
  1.0048615e+00   6.1769329e-04
  1.7680837e+00   1.4840829e-04
 -3.1335391e-02   1.0491854e-04
  2.9173774e-01   7.9703372e-05
 -3.3595567e+00   2.0234038e-06
 -7.9555235e+00   1.9057012e-06
 -6.2777603e-01   8.3400364e-06
 -3.9150455e+00   4.4832295e-06
  1.4013820e+00   1.3553671e-05
 -3.8985770e+00   3.0854011e-03
 -1.5328075e+00   1.2313344e-03
 -4.5256067e-02   5.0277618e-04
 -7.8622097e-01   2.7328691e-05
 -9.5296210e-01   6.9601316e-05
  3.2690897e+00   3.8045535e-05
 -2.0138540e+00   6.0412225e-07
 -2.8874068e+00   2.8741376e-06
 -2.1506467e+00   9.0364210e-06
  7.8879493e-01   1.5276646e-04
 -6.1703175e-01   2.7357112e-04
 -2.7814883e-01   1.8018197e-04
  1.9573768e+00   1.0941373e-03
 -3.2824235e+00   1.0795886e-04
 -2.8263538e+00   6.0613011e-04
 -1.1211487e+00   2.4099836e-04
 -8.5552520e-01   7.5712299e-04
  7.4317235e-01   4.0106761e-07
  6.4033526e-01   1.6631083e-04
  1.8495166e+00   2.2463394e-06
 -9.6237011e-02   1.4520013e-04
  1.9201943e-01   1.0970668e-03
  3.2229510e-01   2.4364830e-03
 -1.5226234e+00   9.7850798e-06
  1.9868011e+00   1.2522985e-03
 -2.0286028e+00   2.2070081e-04
 -1.0733742e-01   3.3097456e-03
  1.3740407e+00   1.2208819e-03
  1.1378296e-01   6.7968108e-04
 -8.1283927e-01   1.4890137e-04
  4.2039195e-01   3.8828331e-03
 -1.4831387e+00   2.9692680e-03
  4.9472851e-01   4.4160835e-03
  4.1832504e-01   1.4734169e-02
 -9.4815207e-01   1.6516798e-04
  1.3033227e+00   1.0579792e-04
 -3.3394837e-01   3.2833193e-03
  3.4093603e-01   7.4971475e-02
 -2.1235763e-01   3.5078172e-03
 -2.0292331e-02   4.4271718e-03
 -1.3537702e-01   2.4098154e-02
 -6.1022657e-01   1.8632109e-04
  5.3158796e-01   8.1628047e-02
  1.0255676e-01   4.7532521e-02
  2.2460626e-01   2.6810751e-03
  2.2258802e-01   4.5548464e-04
 -3.9855182e-02   1.7172516e-04
  7.9512503e-03   4.0262312e-04
  1.5047222e-01   1.6528392e-02
  8.5905828e-02   2.2611168e-05
  4.5745775e-02   3.3949251e-05
  1.5764511e-01   8.4480368e-02
 -9.6040584e-02   3.4310587e-03
  1.5377185e+00   1.2155933e-03
 -3.9361176e-01   4.2093999e-04
 -5.8277690e-01   1.2308868e-03
 -2.6327342e-01   6.5990269e-02
  1.5274127e-01   1.2838361e-03
 -4.9051142e-01   1.3580103e-01
 -1.1019998e-01   5.7848934e-02
  8.6415642e-01   2.2897988e-03
 -7.8572732e-01   3.1223418e-02
 -6.1278772e-01   3.6147411e-03
  1.0682900e-01   5.2647577e-03
 -4.5864105e-02   3.0860186e-02
 -2.9567122e-01   2.3594962e-03
 -7.8611255e-01   2.1455304e-03
 -7.3383909e-01   7.8580618e-02
 -4.5314860e-01   6.4802947e-03
 -1.2022658e-01   4.9622077e-02
  3.3149752e-01   1.1586909e-03
  1.4821868e-02   1.8635276e-03
 -1.8144631e-01   4.6114013e-02
  1.3900062e-01   9.8465141e-03
 -1.1319643e-01   6.6966347e-02
  6.0006213e-01   2.2410801e-04
  1.2826714e-01   8.1653701e-04
 -1.3948694e-01   2.1900477e-02
  8.7031826e-02   8.3963536e-03
 -1.6023384e+00   8.2244645e-05
  1.3346698e+00   2.6423173e-04
 -1.4319661e-01   5.2424119e-04
 -1.3244733e+00   2.6660306e-05
  3.0607083e-01   5.7828597e-06
  4.4439813e-01   5.5733317e-04
 -4.2808223e-01   1.5553969e-05
  5.6153035e-01   7.5261078e-06
 -1.6635906e+00   2.2821178e-04
 -8.8979647e-02   3.1286907e-06
 -8.5751235e-01   2.9679648e-05
 -5.4978404e-02   2.0210848e-03
  2.0361464e-01   1.5009146e-03
  1.6894755e+00   8.2467930e-05
 -2.1550956e-01   5.9387537e-05
  1.5271944e+00   1.4865870e-04
 -3.7957304e+00   2.0944570e-04
 -1.8963778e+00   2.5443055e-03
  5.2021004e-02   2.2108550e-04
  2.5884807e-01   8.1336428e-04
  2.6427695e-01   2.5481524e-05
  1.0276579e+00   2.8268105e-04
 -2.5864896e-01   5.6235783e-04
 -3.1111857e-02   1.3049688e-04
  1.7105142e+00   5.9968693e-07
  1.7480736e+00   5.1952736e-07
 -2.2523439e-01   1.3100296e-04
 -5.7570374e-01   1.2482775e-03
  1.0080519e+00   7.5358912e-06
  2.6435652e-01   1.0337360e-03
  5.1180166e-01   5.2095686e-05
  1.0474981e+00   1.7617516e-04
 -5.4121661e-01   2.3254820e-03
  1.0995744e+00   1.7969871e-03
  6.1127013e-01   1.8225583e-03
 -9.9456203e-01   1.3733817e-05
  5.1480615e-01   2.3120081e-03
 -6.9378674e-01   9.5832621e-04
 -3.5117190e-02   6.1655114e-03
  1.0877964e+00   1.1165805e-04
 -4.9904570e-01   2.7278626e-05
 -1.2124901e-01   5.1818933e-02
  1.4543799e-01   3.9749105e-02
 -5.7251596e-01   1.7741315e-05
  7.9737067e-01   1.0074556e-04
 -1.3751686e-01   1.9714477e-02
 -5.1518023e-01   1.2128839e-02
  2.2888873e+00   2.6901273e-05
 -2.2816706e+00   1.7005661e-04
  2.4793439e+00   1.9573215e-05
 -1.1182472e+00   1.8429328e-05
 -2.1956554e-01   4.5960587e-05
  3.6127788e-01   5.5559282e-04
 -3.1935391e-01   2.2883355e-04
  7.5379866e-01   1.0995327e-03
 -7.3415577e-01   5.6604094e-05
 -1.4227095e-01   4.8283618e-03
  4.7938251e-01   2.8643311e-05
  1.3538067e+00   1.7151368e-05
  3.3428606e-01   1.3307417e-04
  5.8741027e-01   2.9843167e-04
  2.5345082e+00   2.6585869e-04
  6.9489956e-01   4.2173502e-04
 -2.1961076e+00   2.2312718e-04
  6.5323263e-01   1.0836452e-03
  5.4643874e+00   1.6297550e-04
  2.0613933e+00   9.5862953e-05
  2.9372156e-01   2.4785919e-04
  6.3710833e-01   3.0679922e-04
 -5.8525914e-01   6.2210165e-04
 -8.0520429e-02   8.4584266e-05
  9.2162865e-01   5.2543759e-04
 -2.0838504e-01   4.9297072e-05
 -1.4172491e-03   5.7902961e-04
  1.1808293e+00   1.5250665e-04
 -3.0806556e+00   9.7629381e-05
  6.7151290e-01   2.3086285e-03
  9.1584241e-01   1.4935546e-05
 -4.5829552e-01   9.8027044e-04
 -5.8501476e-01   3.8146400e-06
 -6.6175890e+00   1.6967728e-04
  4.2290367e-02   9.9547219e-04
  1.4433262e-01   2.0283833e-02
  1.9865769e+00   2.8529670e-04
 -3.8340369e-01   4.8253685e-03
 -1.2362016e+00   1.4335938e-05
 -1.9829804e+00   1.3431791e-02
  7.7651364e-01   1.0258650e-03
  6.6516149e-01   7.7855081e-04
  8.6594388e-02   1.1457995e-03
  1.1889526e-01   2.2332152e-02
  9.8441556e-02   1.0472445e-01
  9.8407976e-02   9.9691795e-04
 -7.4039632e-01   1.1633625e-03
 -1.6953484e+00   4.8020698e-05
 -1.8734969e-01   3.0741311e-04
  1.6558775e-01   2.9031222e-04
 -1.4161754e+00   4.2357035e-05
  1.5984356e+00   3.1259633e-06
 -1.2566603e+00   8.2825642e-04
  2.1919212e+00   5.7585359e-05
  2.4015470e+00   1.4589367e-04
 -6.8824115e+00   3.3902721e-05
  3.8876991e+00   1.2892426e-04
 -3.0651636e+00   3.0416149e-05
 -1.2154082e+00   8.0303352e-07
  1.4402232e+00   3.3811347e-07
 -1.5627460e+00   6.5880769e-04
  9.5433933e-01   4.6970937e-04
  2.4133965e-01   9.9988036e-05
 -9.8189259e-01   1.8071038e-04
 -1.1069943e+00   9.8255896e-07
 -5.9106922e-01   7.0385569e-05
  2.2423596e+00   9.1807116e-05
  1.0654598e+00   1.2203015e-05
  1.5463532e+00   2.6200529e-05
  8.1250674e-01   2.5236803e-05
  2.3058307e+00   7.6693563e-05
  1.4841840e+00   1.2351096e-03
  2.4583774e+00   1.0026411e-05
  6.6132104e-01   7.4218151e-05
  4.0678349e+00   1.5896800e-04
 -1.4830203e+00   4.0040068e-05
 -2.4560957e+00   1.0743583e-04
  1.4524567e+00   1.3896056e-07
 -1.3636174e+00   1.1571619e-03
  1.6820148e+00   1.2466895e-04
 -1.2546626e+00   1.3339168e-03
  1.4350103e+00   9.4979284e-03
  6.5013975e-01   3.5364965e-03
  5.3676575e-01   3.3095884e-03
 -1.7977862e+00   4.2637712e-03
  7.9447556e-01   3.8370907e-03
  5.9445661e-01   6.6830722e-08
 -1.5501488e+00   2.6683346e-04
  2.4797204e-01   1.8836517e-02
 -1.9773445e-01   4.1813934e-03
  1.9446630e-02   1.1164275e-02
 -2.6269296e-02   1.7914480e-03
  9.9362248e-01   1.7547102e-03
 -3.0635018e+00   1.4765015e-03
  1.2751216e-01   3.9303290e-05
  1.1026139e+00   1.2894900e-03
  9.5889026e-01   7.5586967e-04
 -5.1691091e-01   1.7435455e-05
  5.5447280e-02   8.0573256e-04
 -5.4888129e-01   3.9412553e-04
  1.3278729e+00   2.2892053e-04
 -2.3394370e+00   2.5414827e-04
 -6.1989123e-01   3.0376701e-04
 -4.7751856e+00   5.6373035e-03
  2.2553167e+00   6.3635562e-05
  6.2515721e+00   4.7898971e-04
  3.5995362e+00   2.1439886e-03
 -3.4968345e+00   2.5513113e-04
  3.6419868e-03   7.5042690e-04
  2.0976033e+00   2.5363099e-05
 -2.0311019e+00   2.0048338e-04
  2.2355340e+00   4.6810532e-05
  2.5854752e+00   4.4426834e-03
 -4.1987231e-01   2.4533196e-04
 -2.9343411e-01   3.6822972e-03
 -1.8385403e-02   2.8964829e-05
  1.8228414e+00   2.1073925e-05
  2.9759581e+00   5.7975027e-05
 -3.8780808e+00   3.2136509e-06
 -1.1584555e-01   3.1122559e-07
 -1.5776060e+00   2.4704927e-05
  1.9144007e+00   1.7084787e-04
 -3.6821806e+00   2.1062326e-03
  4.4188970e-01   5.2710553e-04
  3.1892867e+00   1.8784539e-04
 -3.1553641e-02   1.4392955e-03
 -2.1506708e+00   2.8229333e-06
 -3.0636436e-01   1.9031467e-02
 -1.2864971e+00   1.5118605e-02
  2.9539680e-01   4.1915826e-03
 -3.1166732e-01   3.4288669e-03
 -3.0525074e+00   2.9861915e-06
  6.0530806e-01   6.9285524e-03
  6.1027318e-01   6.4561704e-05
  4.9376878e-01   4.1182946e-05
  1.1983547e-01   3.2183681e-02
  4.2388147e-01   5.6591933e-04
 -2.3184524e-01   5.0728493e-03
  3.4474981e-01   7.5318239e-04
  9.9152219e-01   4.6593521e-02
  5.6130968e-02   1.1432443e-02
 -1.5328969e+00   1.2109705e-06
 -1.4104198e-01   4.0162653e-05
  8.3899558e-01   2.3747361e-04
 -8.4663826e-01   3.8111359e-06
 -1.6345439e+00   2.7037479e-04
  1.2162868e+00   4.7234028e-07
 -6.1087098e+00   2.5190199e-03
  1.8182107e+00   6.3929451e-04
  2.9621479e-01   2.6511087e-04
  2.2533348e+00   7.1804947e-03
  2.3974012e-01   2.4468303e-05
 -2.0293484e+00   7.9265978e-05
 -1.8001570e-01   4.7436638e-06
  1.3057396e+00   2.4285369e-05
 -3.4669313e+00   6.1396539e-04
  1.8530455e+00   5.4431730e-06
 -8.4970677e-01   2.3120275e-04
  2.3015413e+00   1.2732809e-05
  3.6101443e-01   1.1909604e-03
  3.4926064e+00   4.3804021e-04
  4.1137409e+00   4.3014350e-04
 -3.2842574e+00   1.6901694e-03
 -3.7943166e-01   7.8609941e-04
 -7.8630382e-01   7.1755407e-05
 -3.1667635e+00   1.3424714e-05
  9.1558553e-02   2.8898628e-04
  2.3049781e+00   1.9634937e-04
 -2.4862375e+00   1.5330024e-03
  5.5797294e-02   1.8772094e-07
  3.1109624e+00   2.6800512e-07
  1.2579949e+00   1.6753115e-06
 -7.3949939e-01   2.8555087e-05
  5.3550035e-01   7.7861507e-05
 -2.8017769e+00   1.9134755e-03
 -4.6568832e+00   9.0926602e-05
 -5.6168455e-01   8.0284486e-03
  4.6763167e-01   5.1070360e-04
 -3.4527794e-01   4.5653440e-05
  2.0715363e+00   2.3156793e-04
  2.1262245e+00   7.2702896e-06
 -3.9793113e-01   1.0455246e-03
  1.0872269e+00   1.9068834e-03
  2.1753582e-01   2.6333620e-04
  2.5723180e-01   5.8988997e-05
  1.7844531e-01   8.5883542e-08
 -1.9664321e+00   7.6457538e-04
 -1.1314604e+00   7.7892118e-06
  1.6645205e+00   1.0144560e-05
  7.4968112e-01   1.4484131e-04
 -3.6499867e+00   5.1030524e-06
  1.1396211e+00   5.8844091e-07
 -1.5076457e+00   6.4915477e-04
  1.0726064e+00   4.0420183e-04
 -2.8060079e+00   3.5743331e-05
 -2.0703597e+00   2.7093782e-05
  1.6375836e+00   2.3580502e-05
 -1.1485174e+00   3.9398496e-04
 -7.0778929e-02   2.7784243e-05
 -2.3474529e+00   3.9208366e-04
  3.1529126e+00   8.4082465e-05
 -1.1565711e+01   1.3140852e-04
 -9.7133178e-01   1.8097961e-04
 -5.1136022e+00   2.6313253e-04
 -6.1815143e+00   2.1620733e-06
  1.6191073e-01   5.9213972e-04
  4.8353748e+00   4.3015800e-05
  2.2428112e+00   6.4788190e-05
 -2.5318131e+00   1.2347435e-05
 -4.9755406e+00   1.3547979e-04
 -1.8983706e+00   1.6439075e-05
  5.1359181e+00   3.0805741e-04
 -2.8472261e+00   3.4196378e-04
 -3.3790264e+00   1.1669359e-04
 -2.3115122e+00   2.7043479e-05
  5.8036840e-01   5.6398721e-07
  1.8650692e+00   9.5476687e-05
  1.6266687e+00   6.5151711e-05
  1.9118965e+00   7.3703923e-05
 -2.3516972e+00   1.2638605e-04
 -6.5328854e-01   6.6455477e-06
  1.0900168e+00   8.1523962e-05
 -3.7135577e-01   7.8674674e-04
 -1.1204121e+00   1.5266331e-06
  2.4576795e-01   3.8053335e-03
 -4.6142163e+00   3.3066159e-03
  5.2265215e+00   3.4774349e-03
 -1.0254567e+00   4.7775083e-03
 -5.8989143e-01   1.8013224e-04
  4.4241780e-01   7.4135815e-03
  5.9060520e-01   1.2518624e-02
  1.4110445e+00   4.7251992e-06
 -4.5864823e-01   8.5545966e-04
  2.2934747e+00   3.5283520e-05
 -4.1746175e-01   2.7546429e-04
 -2.5043118e+00   6.2151771e-06
 -9.2879289e-01   5.8216060e-04
  2.6263170e+00   2.3244720e-05
 -1.2660774e+00   1.9722984e-06
 -6.8445599e-01   6.1758343e-05
  7.0981479e-01   7.8314793e-04
  7.0637697e-01   1.8789864e-05
  3.7418237e-01   4.0199669e-07
  4.8064578e-01   1.8306689e-04
 -2.8664029e+00   1.5321065e-03
 -5.3109720e-02   1.1043277e-06
 -1.5849535e+00   1.6078155e-03
  7.4592626e-01   4.1839416e-04
  6.1683172e-01   1.5413064e-03
  1.3136853e+00   1.2077386e-03
 -8.0484146e-01   4.0982261e-05
  2.8498127e+00   4.4719380e-04
 -3.4626555e-02   5.5630837e-04
 -6.8441439e-01   1.5840467e-06
  3.1942049e-01   6.0655246e-04
  2.4035351e+00   5.4497154e-06
  1.8314428e+00   1.3454635e-05
 -5.5008525e-01   2.8901003e-04
  6.1164880e-01   1.9698846e-04
  3.8609970e+00   1.8837721e-04
  2.6212211e+00   5.7840231e-04
 -3.4494230e-01   8.1807404e-05
 -3.1238177e+00   7.3705055e-04
 -1.6003916e+00   3.0678326e-05
 -9.5548769e-03   9.5892866e-04
 -1.1785264e+00   2.5967366e-04
  5.7020885e-01   2.6909102e-06
 -1.4219484e-01   1.7711378e-05
 -1.4559784e+00   1.1359642e-05
  7.5090599e-01   2.5623037e-02
 -2.2873003e+00   7.0618698e-04
  2.1054208e-01   1.1303282e-02
  6.1062342e-01   4.1253897e-03
 -8.2174814e-01   4.8468137e-04
  1.4656152e+00   5.4979618e-03
 -3.0238981e+00   1.1885034e-04
 -5.3533429e-01   5.5630305e-03
  5.7062026e-02   1.7847205e-03
  1.3109414e-01   1.0451575e-04
  5.2379936e-02   2.6999116e-06
  7.7239908e-02   3.9932912e-04
 -7.9054141e-01   6.7851343e-03
  2.2251682e+00   3.2418757e-05
  4.2941684e-01   1.2301300e-04
 -1.8508935e+00   1.1306403e-04
  1.1860013e+00   1.0618332e-05
  4.7305816e-01   8.2608691e-05
  1.9395318e+00   3.0823929e-05
 -5.0175571e-01   5.0485745e-05
 -8.4761441e-01   4.1327054e-05
  1.3687849e+00   2.6266029e-05
  2.1498981e+00   1.1591479e-04
  1.1038309e+00   4.5747379e-06
 -3.0347443e+00   3.1436121e-04
 -2.9015656e+00   5.4439024e-05
  7.9710975e-02   1.7390265e-03
 -1.6597953e+00   1.4535176e-04
  2.4224467e+00   3.9987550e-03
 -1.3797814e+00   4.0512125e-04
  7.5517291e-01   8.2414568e-05
 -9.8373979e-01   1.4774822e-05
 -4.4943270e-01   6.3832500e-05
 -2.2917983e-01   2.1987761e-04
 -1.7984844e+00   1.1435472e-04
  1.2831411e+00   2.4534922e-04
 -1.7636830e-01   4.7730940e-05
 -7.1593218e-02   1.2528309e-07
 -1.0859922e-01   9.2356805e-07
  1.2414360e+00   1.1010119e-04
 -1.4292824e+00   3.3676089e-04
 -3.0501053e+00   8.0542786e-06
  2.7665678e-01   1.2256829e-04
 -6.1851680e-01   8.1526137e-05
 -3.0588093e-01   1.7417669e-05
 -1.1625338e+00   1.2747348e-04
 -1.4889873e+00   1.7642300e-04
  3.8928638e+00   2.5964811e-04
 -1.2399437e+00   3.6614689e-03
  1.4799290e+00   4.7363462e-03
 -1.8216117e-01   6.5223793e-07
  1.3348968e-01   1.4479503e-03
  3.4217849e-01   1.0984495e-03
 -1.0108540e+00   7.4610248e-04
 -9.0775800e-01   1.8623587e-02
 -2.3781493e-01   5.2924256e-04
 -5.5139261e-01   2.3392162e-04
 -1.4380984e-01   3.3622000e-02
 -1.8070148e-01   6.6618988e-05
 -2.3551371e+00   1.0629673e-06
 -5.5899847e-01   7.5211596e-05
 -1.6435157e+00   7.4219884e-07
  4.6742573e-01   1.4036235e-03
  1.2997489e-02   1.1182092e-05
  2.0950236e+00   1.2860304e-03
  8.5171980e-01   1.7802579e-03
  1.1224061e+00   1.8094578e-03
  6.1652869e-01   9.9479701e-05
  1.9981153e+00   8.8047422e-04
  7.7207595e-01   3.6708207e-04
 -1.6671362e+00   1.2051571e-05
 -5.9868097e-01   3.4510327e-04
 -2.0621502e+00   3.8568410e-07
  1.3792185e+00   3.6114720e-08
 -1.9208498e+00   5.2112252e-03
  4.0133500e+00   2.4581555e-04
  2.0817012e-01   1.1867587e-05
 -8.5802716e-01   4.4108339e-04
  7.3748440e-01   2.5386037e-04
 -1.0043536e-01   6.9607901e-05
  1.6915810e+00   8.7049470e-04
  6.6623792e-02   4.9201658e-06
  1.5400392e+00   1.4603859e-03
  2.2608075e+00   3.0081932e-05
 -1.1564177e+00   1.4957702e-05
  4.6607178e-02   3.0531731e-04
  1.2045210e-01   1.1232271e-03
 -5.8025920e-01   4.6047023e-03
 -3.4308076e-01   9.4215624e-04
 -1.9843140e-01   1.1278459e-02
  1.9403695e+00   1.0114553e-06
  1.2508072e+00   2.3603281e-03
 -4.3637872e+00   7.5678492e-04
  1.5199381e+00   1.3573699e-03
  5.3474551e-01   9.4437091e-06
 -2.4225451e-02   8.4933206e-02
 -4.0686351e-01   5.8585074e-02
  1.1055499e+00   5.1449250e-02
  1.5398544e+00   3.3405953e-04
  4.3386397e-01   4.7185142e-03
  1.0880719e+00   3.1977612e-05
  1.6497780e-01   5.6414963e-03
 -1.0113799e-01   3.4786689e-03
 -1.4759029e+00   6.0575682e-04
  1.9645126e+00   3.1846266e-08
  1.6451690e-03   2.5329748e-03
  4.0661359e-01   1.2212025e-02
  3.2221526e-02   4.1130100e-08
 -5.0775018e+00   3.4150621e-04
 -4.9143057e-02   3.6881687e-05
  3.9347664e-01   1.8333881e-06
 -9.1648191e-01   1.4557620e-05
  3.2375429e+00   1.4076826e-04
  1.6230294e+00   4.0654762e-04
  1.0597868e+00   2.1651421e-04
 -6.0589349e-01   8.6434220e-04
 -1.8953223e+00   5.8987598e-06
 -1.3424395e+00   2.0206591e-05
 -1.8616365e+00   5.7112164e-05
 -2.2003124e+00   6.9463122e-06
  2.4016804e-01   3.2879150e-04
  1.3543766e+00   4.3438173e-05
  3.2539871e+00   2.8146711e-05
  2.4426506e+00   3.4455900e-04
  1.2677002e+00   1.5122119e-05
  1.1974442e+00   1.0904735e-03
  1.5315703e-01   7.2503021e-06
 -8.6135137e-01   7.3209469e-04
  1.3062176e-01   4.1454769e-06
 -4.1376772e+00   3.0290032e-06
  3.8780788e-01   2.2814595e-06
 -1.0495822e+00   2.7820281e-06
 -2.0584581e+00   8.7146778e-05
 -2.2023532e+00   3.9575901e-04
 -9.2079175e-01   7.4530963e-04
 -2.2229602e+00   2.0310342e-04
  3.4279197e-01   8.0576848e-04
  3.0444303e-01   5.8968141e-08
 -1.8911318e+00   9.1807997e-05
  1.1553955e+00   5.2502551e-06
  3.9878157e-01   2.3570184e-04
  7.4406731e-01   3.1820199e-04
  5.4892325e+00   6.1305417e-03
  7.1183350e-03   7.4040107e-03
  6.5108275e-01   1.1065598e-03
  7.4672288e-01   1.4582468e-04
  4.2942204e+00   5.3419550e-05
 -1.0645797e+00   6.3427450e-04
  1.0212718e-01   1.0877346e-02
 -8.7817436e-01   1.0431507e-02
 -1.4974098e+00   3.7252001e-04
 -2.9459974e-01   3.5739303e-02
 -1.2691375e+00   2.5764960e-03
 -1.4807210e+00   1.1487033e-02
  7.1999419e-01   1.0202067e-05
 -1.3067857e+00   1.5758236e-04
  3.1692296e-01   1.3915371e-05
  6.0664189e-01   9.1600887e-06
  4.0456876e-02   1.0016307e-05
 -1.3166935e+00   1.6405838e-06
  4.7646198e+00   3.6347948e-04
 -1.5942066e+00   2.1048758e-05
 -5.3069025e-01   7.9756523e-05
 -6.8306632e+00   4.2459130e-04
 -1.4361520e+00   1.3896036e-04
 -1.3138792e-01   2.0812025e-04
 -1.2013416e+00   9.3410035e-06
 -3.6406276e-01   1.2245512e-03
 -2.5889771e+00   1.2097594e-04
 -3.9050394e-01   5.5954104e-05
 -1.1106598e-01   3.4110060e-05
 -1.2975581e+00   8.8183615e-06
 -2.5607841e+00   3.2127675e-04
  8.9113468e-01   5.4837597e-07
  7.4501806e-01   6.9450925e-06
  1.3724211e+00   1.1696134e-04
  7.0480019e-01   1.2972764e-05
  1.7902121e-01   1.8555047e-05
  1.0129801e+00   2.5467008e-07
  1.1064615e+00   4.8124683e-05
 -2.2313647e+00   1.1815872e-04
 -1.8312680e+00   2.5115329e-05
 -4.8478091e-01   3.6571528e-06
  6.1442995e-01   2.4405141e-04
  1.2112645e+00   3.9951856e-06
 -1.3550252e+00   1.5625592e-06
 -5.5009730e-02   6.4422074e-04
 -6.2187176e+00   4.0932056e-05
  2.0170755e+00   6.0775480e-03
 -7.2405255e-01   1.0091337e-02
 -3.1844482e+00   9.7956741e-04
 -8.7519103e-01   3.4106713e-05
  3.2685075e+00   1.6571789e-07
 -6.8453079e-01   5.1984283e-05
  1.0132853e+00   3.9832290e-08
  2.6610553e-02   7.3263462e-04
 -2.4340293e+00   1.7321577e-03
  8.9658007e-02   2.2279661e-02