 -1.9469470e+00   2.8563265e-05
  7.2426510e-01   4.7414716e-05
 -3.0997249e-01   4.0874609e-05
 -7.5408596e-01   1.3259987e-08
 -5.6137379e-02   3.4177951e-06
  1.2144445e-02   3.9890798e-05
 -8.3236414e-01   9.0757158e-04
 -1.3718711e+00   7.4785465e-05
 -2.0552777e-01   7.0993781e-05
  8.6840004e-01   1.7657621e-07
  1.4924392e+00   4.7257192e-05
  8.7028456e-01   7.7644409e-06
  8.6730188e-01   5.1909895e-04
 -1.1131567e+00   2.1792878e-03
 -2.0621888e-01   1.5156028e-04
 -1.0714586e-01   5.4574317e-05
 -1.8513461e+00   1.9326801e-06
  9.3104821e-01   1.7868266e-03
  8.3706373e-01   1.4404197e-04
  1.1770071e+00   2.1039976e-05
 -3.9113158e-01   1.2964590e-07
 -3.1378838e-01   2.6741574e-04
  1.0180259e+00   1.0985218e-04
 -7.2920799e-01   1.3838091e-04
 -1.9183941e+00   1.1034025e-05
 -1.8019582e-01   2.0504795e-05
 -6.0745847e-01   2.6952267e-09
  2.3489540e+00   1.6034777e-05
  3.4050965e-01   6.7102707e-07
 -5.8989686e-01   2.3314769e-06
 -8.5684544e-01   4.7060035e-05
 -3.0133203e-01   3.0276991e-05
  7.4244684e-01   6.5552886e-04
 -4.7270682e-01   1.1076812e-04
  5.5339175e-01   4.8736106e-03
  4.4670668e-01   9.9908886e-04
 -6.2706113e-02   7.7226432e-05
 -2.1701889e+00   4.6235695e-05
 -9.9737868e-02   4.1378566e-06
  2.1849349e+00   3.5906446e-04
  2.0559445e-01   4.7361499e-04
 -8.9952396e-03   7.6734039e-05
  2.2434092e+00   4.1205366e-03
  4.4150716e-01   8.4059815e-05
 -7.8395975e-01   6.0191210e-03
  1.7325084e-01   2.4613129e-02
 -2.0573594e-01   4.3646232e-03
 -6.2369180e-01   2.0744373e-07
  1.3404003e+00   1.0364592e-05
 -2.1728761e+00   1.3717788e-04
  6.7362875e-01   1.2417332e-05
  4.5667037e-01   3.8249452e-09
  5.6391776e-01   5.8671058e-04
 -6.1451167e-01   3.4926928e-04
  2.8244884e+00   1.3632061e-04
  6.8301380e-01   2.2599161e-07
 -6.0880679e-01   4.0491996e-05
 -5.9978461e-01   3.7081159e-06
  2.9775133e+00   2.8291619e-05
 -1.3233173e-02   1.1946379e-06
  3.5077581e-01   4.5629035e-06
 -3.9333355e-01   1.5512819e-04
  1.9153908e+00   2.7693815e-07
  1.5696511e+00   1.7482937e-05
  7.3472846e-01   1.7169781e-05
  1.2008639e-01   1.5257395e-04
 -1.6802777e-01   1.7511109e-06
 -2.9078567e-01   1.6653776e-05
 -9.3795896e-01   1.5853448e-06
 -1.2312651e+00   1.4494346e-04
  7.1563250e-01   8.4090563e-05
  1.2896638e+00   7.5247482e-04
 -8.2632977e-01   5.4395919e-06
  2.3010652e+00   4.2957989e-05
  2.3745449e+00   1.4354234e-07
 -5.1577777e-01   1.2729770e-05
  4.3432862e-01   2.0515459e-04
  5.4977077e-01   8.5001466e-06
 -1.3371876e+00   1.2051849e-04
 -8.8462782e-01   4.0167424e-06
  1.4768881e+00   1.3012805e-03
 -2.5727120e-01   1.0896343e-05
  2.9634013e+00   7.5469557e-05
  2.3607972e+00   1.1380217e-07
  2.6565656e-01   8.8357795e-03
  9.2836034e-01   2.3567381e-04
  2.9675043e+00   4.9695012e-04
 -2.3148818e+00   2.6729071e-05
 -6.7616415e-01   4.6899327e-06
  1.1223956e+00   5.0318973e-05
  5.2001154e-01   1.6371068e-03
  6.3294095e-01   1.5923175e-05
  3.6635309e-02   9.3444518e-04
 -3.6469296e-02   1.8304607e-05
 -1.7875044e+00   1.2720289e-04
  3.4765521e-01   6.2417744e-06
  1.3609527e-01   1.0793867e-05
  1.3814973e+00   1.7264969e-05
 -3.8357896e-01   1.1949614e-05
  6.6463029e-01   8.8861452e-06
 -1.9615248e+00   2.2822025e-05
  3.3892605e-01   1.7083567e-08
 -6.7355537e-01   3.8847711e-06
 -1.7065899e+00   1.3492336e-05
  4.9647582e-01   9.8164986e-05
 -4.3379804e-01   2.8902676e-04
 -2.0336917e-01   2.7407470e-04
 -1.2418991e+00   1.4812235e-05
 -3.1250402e-01   1.4047549e-04
 -9.6070415e-01   2.6406295e-05
 -2.3222535e+00   4.2411697e-04
  2.2423641e-01   2.5824656e-08
  2.1958184e-01   8.0867477e-07
 -6.6848767e-01   3.1015722e-07
  1.0804156e-01   3.7027787e-06
  1.0478177e+00   5.5489352e-07
 -8.1853640e-01   3.0597246e-05
  5.1006436e-01   6.9060316e-04
 -9.7727251e-01   1.5322758e-04
 -9.5490456e-01   1.9062644e-04
 -1.4258336e+00   4.8325310e-06
  1.9021519e+00   1.4511969e-08
  8.7850869e-01   7.6257079e-06
 -3.7789211e-01   7.1874740e-05
  8.7201136e-01   4.1510906e-05
 -3.1010985e-02   7.7760778e-05
 -1.1646861e+00   4.2417149e-08
  6.9474071e-01   2.2157737e-04
  3.9206195e-01   5.5406301e-04
  9.3916678e-01   3.1612997e-03
  3.0667306e-04   4.5554258e-04
 -1.9439467e+00   1.0513628e-03
 -1.0986567e+00   5.1432336e-04
  2.5015855e-01   7.8924495e-05
 -9.9352904e-02   4.8421300e-03
 -2.2723179e-01   9.2531424e-03
 -6.4948267e-01   1.0397948e-03
 -4.3501720e-01   2.2567103e-04
 -1.7462729e-01   1.1697496e-02
 -2.5536191e-01   3.6864124e-02
 -1.3333366e+00   3.1548908e-03
  2.7302258e+00   1.5734832e-04
  5.0134176e-01   3.0934771e-06
 -1.5212591e+00   3.3933652e-04
  6.0359532e-01   1.3191975e-04
 -4.6891112e-02   3.9879990e-07
  6.0974360e-02   6.3552209e-03
  4.3038120e+00   1.6480681e-03
 -2.0879755e+00   4.4191220e-06
 -1.7634692e+00   7.7648720e-06
 -1.7812245e+00   1.5247363e-03
  3.5365429e+00   2.7428374e-03
 -1.3791518e+00   1.7441198e-03
  6.8684971e-01   1.6229134e-07
 -9.8753917e-01   1.3621458e-04
 -1.7871025e-01   1.2969763e-05
 -7.6861721e-01   2.9186241e-04
  2.6122022e-01   2.7201977e-03
  2.8636369e-01   3.2366195e-05
  9.9121660e-01   9.0296789e-06
 -2.2365870e-01   9.4213743e-07
 -4.9799204e-01   2.4640037e-06
  3.7965634e+00   2.3064769e-03
  7.5225249e-02   2.0309105e-04
  1.5980076e+00   1.1029994e-03
 -8.7579049e-02   3.2797121e-04
 -2.4311267e-01   1.8007758e-04
 -3.3891261e+00   1.2763343e-05
 -2.0183864e-01   3.8622249e-05
 -6.2512815e-01   4.6923663e-04
 -1.0718759e+00   5.3711654e-05
  2.4223871e+00   3.5005150e-04
 -1.0536696e+00   7.3205549e-05
  1.5545135e+00   1.4408562e-05
 -6.6356099e-01   1.5617401e-05
 -2.1593735e-01   3.8425555e-04
  3.5222363e-02   1.9667696e-03
 -9.7591639e-01   1.0487508e-03
 -7.6607537e-01   3.3060659e-03
 -3.7536204e-01   4.3193715e-05
 -1.8367091e+00   4.3963236e-03
 -3.4281306e-02   4.7936298e-02
  1.4624850e-01   3.5087412e-04
  7.3208883e-02   2.4849789e-03
 -6.4917660e-01   6.8479625e-05
 -5.2827054e-01   3.2756448e-02
  2.2859858e-01   1.0989207e-02
 -2.0784557e+00   3.4584934e-04
  4.1205937e-01   2.9193718e-05
  6.2197906e-01   1.7688906e-08
 -1.0052270e+00   1.7417700e-05
  5.6569636e-01   4.1079463e-07
 -9.6225494e-01   3.8104194e-05
  3.8556245e-01   4.8671829e-04
 -1.4410181e+00   1.1610297e-06
  1.9911398e+00   1.8152385e-05
 -2.1906643e+00   2.1630708e-06
 -4.0972570e-01   3.3008830e-05
  9.9420178e-01   2.4981891e-05
 -1.1512994e+00   5.7550352e-07
 -8.7681472e-01   8.2417555e-06
  5.4453582e-01   4.4511147e-05
 -1.7805517e+00   2.4168224e-04
 -1.6228124e+00   9.7927405e-05
 -6.2226230e-01   5.9948891e-04
 -1.3990300e+00   3.8186036e-04
  1.8422476e+00   4.6080638e-07
 -2.9332650e-01   1.5370411e-05
 -4.9416110e-01   2.5574996e-06
 -9.4796330e-01   1.1021410e-05
 -1.5083681e+00   5.2250317e-07
  1.4644635e+00   2.8527650e-04
 -2.0070710e+00   7.5503422e-06
 -1.1856521e+00   2.7220265e-05
  1.3877679e+00   1.0284127e-04
 -7.0054150e-01   5.4689767e-06
 -6.1809754e-01   1.3568913e-05
 -1.0342872e+00   7.4932077e-06
  1.0954016e-01   1.5032245e-05
 -1.1629082e+00   2.1865296e-07
  5.2957189e-01   2.0244357e-04
 -3.5145596e-01   1.8173469e-04
 -6.9747186e-01   2.7096532e-02
  1.0597559e+00   2.0881691e-04
 -6.4852285e-01   3.7880539e-04
  2.4591577e+00   1.3042453e-03
  8.0050945e-01   3.1196469e-05
  1.6455666e+00   4.3848566e-05
  6.3290519e-01   1.1626227e-02
  4.6313572e-01   1.3991926e-04
 -7.2854996e-01   3.7309207e-04
 -3.3818910e-01   8.4260208e-08
  1.6259439e-01   1.0291672e-03
 -6.0381703e-02   1.0334925e-02
 -1.7392044e+00   8.1480848e-06
 -7.7018774e-01   2.6220523e-06
  3.9878243e-01   1.0143186e-05
 -1.1871685e+00   2.5589319e-04
 -2.6999646e-01   3.3897250e-05
 -1.3698019e+00   4.5038203e-08
 -3.3226526e-01   2.8823174e-03
 -1.2167819e+00   2.7539159e-04
 -1.2809745e+00   4.2496048e-04
  1.9830481e+00   1.0135052e-04
 -6.0272956e-01   2.0443476e-05
  3.7920386e-02   1.2979644e-05
 -4.0555578e-01   2.3929575e-05
 -3.2016665e-01   8.4881874e-04
  3.6044505e+00   2.2562983e-05
 -7.2196025e-01   4.9743747e-05
  1.2729921e+00   7.1936505e-05
 -6.6302687e-01   1.4657843e-04
 -1.5925772e+00   2.4104759e-04
 -1.2454447e+00   9.8711433e-05
  9.9276161e-01   9.5689771e-05
 -6.3972998e-01   1.2789515e-04
 -3.3200574e+00   2.8323659e-05
 -7.1982726e-02   3.4141976e-05
 -1.6464822e+00   1.4940836e-07
  1.2019116e+00   6.4728469e-05
 -1.2406641e+00   9.1385800e-06
  1.3395998e+00   6.3812848e-05
  6.5112817e-01   1.1540016e-08
 -2.7386022e-01   9.1654429e-06
 -8.2179256e-02   2.8343979e-04
 -4.6690140e+00   5.7559031e-05
  3.3910992e+00   1.9918331e-04
  1.0837217e-01   2.1834123e-04
  1.7149559e+00   3.1933191e-04
  2.6519296e-01   2.0430459e-06
 -7.4192214e-01   2.6358669e-03
  1.8040738e+00   6.8220215e-05
  2.5853319e+00   6.0089491e-04
 -6.0965401e-01   4.1441040e-04
  7.9151750e-01   1.4635629e-04
  3.6561683e-01   1.9231398e-03
 -5.2029866e-01   9.8247977e-04
 -3.4136114e+00   4.3400335e-03
 -8.0924976e-01   6.7288961e-06
 -4.6594098e-01   4.3059638e-04
 -2.3471910e-01   3.4320258e-04
  4.4067788e-01   1.6835269e-04
  1.5782107e-01   7.1294944e-06
  8.3647054e-01   1.3930138e-06
 -3.9223525e-01   4.3096734e-06
 -2.3774037e-02   1.0212965e-06
  1.6487522e-01   3.7553244e-05
  1.8106017e+00   4.8818154e-04
  3.2003763e-01   5.6815569e-08
 -1.6666497e+00   8.5892671e-09
  1.6862087e-01   1.1775584e-05
 -4.0706700e-01   2.2504199e-04
 -2.2295976e+00   5.4791635e-06
 -1.3771585e+00   8.6244880e-05
  1.1466464e+00   4.6546855e-05
  4.9995336e-01   2.7662765e-09
  1.2285025e+00   1.6193932e-04
  4.0872359e-01   7.1388247e-05
 -3.4644330e-01   1.3287651e-05
 -1.3731318e+00   1.2835042e-05
 -3.3894826e-02   2.6372522e-06
 -7.5054276e-01   3.5075620e-05
  2.8152637e-02   5.9881472e-08
  1.3954372e+00   9.9788984e-08
  2.3710412e-01   3.4923214e-05
  3.0270696e-01   2.2234995e-06
  5.0813442e-01   2.8388301e-06
  2.3774063e-02   1.8093207e-04
 -2.0963924e+00   3.9529371e-07
  6.1727953e-01   3.5631158e-06
 -4.7775778e-01   6.4992484e-05
  8.0186278e-01   1.0758547e-06
 -2.9510957e-01   3.0795470e-04
 -6.3771999e-01   8.7864850e-05
 -1.4865932e+00   4.5012966e-06
  8.6999196e-01   2.2962226e-07
  6.2558228e-01   8.8728983e-03
  5.1626354e-01   1.0457430e-04
 -5.1052713e-01   3.1087847e-04
 -7.2798714e-02   3.5672705e-04
  2.8165022e-01   2.1189620e-04
 -6.5408468e-01   2.1783830e-04
 -4.4367835e-01   6.4889196e-04
 -5.8707383e-02   6.7940545e-03
 -6.3709359e+00   3.7956823e-04
 -1.3165027e+00   6.3665619e-04
 -6.3126868e-01   7.6428307e-03
  4.7559017e-01   5.5205561e-03
 -4.4638622e-01   1.8786338e-04
  5.4724735e-01   4.4519995e-05
 -6.7565548e-03   1.4055141e-07
  6.9353658e-01   1.3367497e-04
  2.0666365e-01   1.8987321e-05
 -3.3625850e-01   5.9783355e-07
 -1.5019913e+00   1.3503345e-06
 -5.7420194e-01   3.7468981e-05
 -1.9910029e-01   7.7790634e-07
 -4.5107555e-01   4.6859245e-06
 -1.2769131e-01   6.1239470e-03
  1.8168160e+00   3.2380325e-04
  9.4515979e-02   8.7372515e-05
 -8.8297004e-01   2.5802822e-04
  2.6085632e+00   1.7170211e-02
 -8.0571645e-01   1.5928761e-05
  2.8500125e+00   2.7589151e-05
  3.4850806e-01   2.2853563e-05
  4.8250520e-01   3.5979476e-05
 -6.2767261e-01   1.0992690e-05
  3.8708356e-01   2.3585549e-06
 -6.6483057e-01   8.4781232e-06
 -5.1589566e-01   1.7349124e-05
 -2.2436628e+00   4.6649729e-06
  2.4985996e-01   9.8556251e-05
 -7.7857530e-01   8.5506863e-06
  7.7827442e-01   4.5716515e-04
 -4.2860499e-01   6.6275112e-07
 -1.0002591e-01   6.4237182e-05
  8.4407246e-01   1.8744196e-07
  1.0833839e+00   1.1801652e-08
  2.2295012e+00   5.2832555e-05
  1.7685616e+00   1.0729537e-04
 -9.3878967e-01   6.0479080e-05
 -1.2928820e+00   3.2637363e-05
  1.1200013e+00   4.7566267e-03
  1.6949217e-01   1.3142647e-02
  1.4342179e-02   4.8610489e-04
 -9.6663648e-01   1.3018564e-04
 -1.0250206e-01   8.0639278e-05
  1.6830856e+00   2.0079035e-04
 -2.2167839e-01   2.4685098e-03
  2.7887455e-01   7.2098483e-04
 -1.4568874e-01   5.4369120e-05
  1.3301744e-01   4.7131133e-04
  1.1142359e+00   1.5855505e-05
 -1.5726778e-01   3.8322430e-02
  1.6903799e-02   1.0481276e-04
  1.3575587e+00   1.5195187e-05
  1.0066206e+00   2.3367497e-06
 -8.0755405e-02   5.5568859e-07
 -1.9486086e+00   2.7081760e-06
  4.7902808e-01   2.4150320e-05
  6.5193690e-02   2.8300565e-04
  1.2259493e+00   3.7345517e-04
  4.9276441e-01   1.3570391e-04
 -8.3201689e-01   9.0640649e-05
  1.1979622e-01   2.4023115e-04
  6.4931028e-02   6.4869455e-05
 -6.2840305e-02   9.3259916e-07
  1.7994863e-01   5.0076190e-04
 -6.0328956e+00   1.5043282e-04
 -3.3710387e-02   7.6059703e-05
  6.4405017e-02   6.1562845e-05
  1.2972083e-02   4.8592663e-04
  6.7537642e-01   3.4936008e-07
 -6.9559425e-02   3.2449076e-05
  1.7209909e+00   1.2479394e-04
  4.5878085e-01   4.4181343e-04
 -9.6069008e-01   6.4977422e-07
  7.0776057e-01   3.1791328e-06
  2.8531349e-01   1.4243113e-04
 -5.8152056e-01   2.1208321e-05
  3.8394224e-02   1.0709888e-04
  6.0720766e-01   4.4311615e-05
  1.4111072e+00   9.8470598e-05
  1.8258978e-02   7.2602315e-06
 -8.6542755e-02   5.2812959e-07
  3.9981064e-01   4.0658511e-04
 -4.3114689e-01   6.6225898e-06
  1.7009673e-01   2.3931572e-05
  3.4403946e+00   9.2690653e-04
  9.3512140e-02   3.9204480e-03
  5.9325534e-01   3.7130807e-04
 -7.9766530e-01   2.2209033e-05
 -4.2290855e-02   1.7882602e-03
 -3.5532653e-01   1.8025941e-03
 -1.0643026e+00   1.8812672e-03
 -5.5462416e-02   8.3671603e-04
 -6.3047183e-01   1.9405844e-03
 -1.7070253e-01   4.4751808e-04
 -1.3325282e+00   8.8590167e-07
 -3.4548005e-01   3.9670262e-03
 -5.5983692e-01   1.4884370e-04
  4.5972016e-01   5.6973234e-04
 -3.7974057e-01   7.5599441e-05
  3.5867175e-01   5.4760243e-05
 -1.5002352e+00   7.9259672e-04
  3.0637306e-01   4.4320874e-05
 -1.1267798e+00   1.1634553e-04
 -1.0628680e-01   8.5386692e-04
 -3.1062698e+00   7.1102738e-07
  2.2967486e-01   4.3352131e-05
 -6.9524181e-01   3.0169531e-06
  1.4754410e-03   5.2451333e-06
  2.4653685e+00   2.1966264e-06
 -2.4030473e+00   3.7236363e-04
 -2.6349468e+00   1.7349265e-04
 -3.7610261e+00   6.7547173e-04
 -2.0729661e-01   9.6392178e-05
 -2.5294564e+00   6.3320546e-04
 -2.8202182e-01   2.0314695e-04
  1.3401637e+00   2.2146008e-04
 -8.3268866e-02   4.9460840e-07
 -9.4165349e-01   4.0454705e-07
 -4.9019322e-01   2.5532581e-04
 -2.9661873e-01   2.1290628e-04
 -4.3713808e-02   9.9026438e-05
  1.2666166e+00   3.3595919e-09
 -6.9735748e-01   4.1570805e-05
 -6.1920232e-01   2.3961893e-05
 -3.3820489e-01   2.9023104e-06
 -4.6489203e-01   6.9126331e-06
 -1.8849876e+00   4.0808952e-04
  5.5341125e-01   2.2341595e-07
  1.8342301e-01   1.1943298e-05
  2.7996606e-01   2.5865281e-04
 -1.3541203e+00   8.1961340e-04
  2.4723799e+00   4.3412214e-03
 -1.8704168e-02   1.7339735e-04
  1.2290705e-02   3.5228030e-04
 -1.0369530e+00   2.6102134e-03
  5.9788686e-01   1.7410658e-06
 -4.4327390e-01   9.7506698e-03
  5.9351206e-01   1.6852223e-03
  2.7265282e-02   5.6990428e-04
 -5.9865639e-02   1.0809532e-02
  4.5232425e+00   4.5935525e-07
 -1.1785401e+00   5.1601550e-05
  2.0415568e-01   1.2830379e-02
  8.0028093e-01   2.4126898e-03
  7.4577153e-01   7.9814933e-04
 -8.9361393e-01   8.1948938e-06
 -1.2807092e-01   7.2745730e-05
 -8.0650169e-01   1.6766679e-05
  1.4624047e+00   6.4895954e-05
 -8.6537111e-01   1.6914844e-05
  2.7550352e-01   2.7796981e-04
 -1.2832730e+00   7.5433122e-06
  4.5507276e-01   6.3608872e-04
 -4.6656555e-01   8.9907830e-05
 -7.3455840e-01   8.4082328e-04
 -1.9052438e-01   1.3843911e-04
 -1.7934692e-01   1.6086506e-04
 -4.7937598e+00   1.1965327e-03
 -1.5327835e+00   4.9762593e-06
  6.2392670e-01   1.6639753e-04
  8.4188962e-01   1.8389440e-04
 -2.7790418e+00   1.8651703e-04
 -4.3967685e-01   1.8441360e-03
  1.3255484e-01   6.9543696e-04
 -2.1537969e+00   1.1670922e-04
 -1.1275380e+00   7.0473186e-05
  2.3967688e-01   3.1215651e-04
 -7.3604864e-01   1.0194727e-04
 -2.7658501e-01   5.3443707e-04
 -3.0425253e+00   7.7460754e-05
  2.1244641e-01   5.9247694e-05
 -1.0824826e+00   3.7720478e-05
  1.8427660e+00   5.8141617e-05
 -4.4537836e-01   7.5194286e-04
  1.6538934e-01   8.1897415e-05
 -3.9716635e-02   4.8870710e-04
  1.1712596e+00   3.7128618e-04
  1.6067249e-01   3.3469753e-06
  1.3066467e+00   1.5312689e-04
 -1.3110949e+00   3.7761144e-03
 -1.4275743e+00   5.0046248e-04
 -2.3325360e-01   1.0859838e-04
 -9.0807807e-01   7.5548263e-03
 -6.1347800e-01   5.8912602e-03
  6.6144890e-01   4.6498608e-05
  5.2248653e-02   2.4223786e-04
 -3.0283976e-01   2.2711536e-07
  4.6973806e-02   1.4798682e-03
 -1.7476670e-01   1.2647751e-05
  1.5651500e-01   4.1833718e-07
 -1.4440479e-02   7.6127285e-03
 -5.5072194e-01   4.5143669e-03
  5.7828230e-01   4.7182258e-08
 -6.7308217e-01   1.5651468e-06
  5.0078806e-02   2.7896526e-06
  1.8964757e-01   5.7169149e-07
  4.4669017e-02   1.6371919e-06
  1.7484955e-01   3.2944044e-03
 -1.0759114e+00   2.7148344e-05
 -3.6171499e-01   2.0052885e-05
 -4.4457623e-01   6.0951681e-04
  5.7615477e-01   3.0679649e-04
  8.7111801e-01   8.0180995e-04
 -8.4004104e-01   5.6463893e-04
 -2.3014478e-01   3.8122173e-04
 -3.0836847e-01   1.1428790e-03
 -5.1445466e-01   5.4622810e-06
  8.4492527e-02   1.6814435e-03
 -3.8737133e-01   2.6212565e-03
  2.0625603e+00   3.2958254e-05
  9.5629525e-01   8.0949720e-04
  1.5951191e+00   5.3666997e-07
 -1.1612201e-01   5.7263509e-04
 -6.9721155e-02   1.0711438e-05
 -7.0013177e-01   4.9154701e-06
 -5.7951635e-01   2.4256594e-06
  2.4019836e-01   3.5679641e-05
 -5.9722829e-01   8.7012086e-06
 -5.3368491e-01   8.1851285e-06
 -2.2804122e-01   5.5206008e-04
  5.3540635e-01   1.0988588e-05
 -1.7698324e-01   2.9459250e-05
  2.4446471e-01   4.0179389e-06
  6.3811159e-01   1.0900137e-04
  7.3866554e-02   1.6395799e-03
 -1.2862191e+00   9.5714131e-05
 -8.2402986e-01   8.3603729e-03
  1.3827358e-01   1.2138183e-03
 -2.6926520e+00   3.7023504e-03
  4.5918354e-01   8.5395390e-05
  7.8414671e-02   1.0487883e-03
  3.2486086e+00   2.4919354e-04
  2.8365991e-01   1.8916647e-04
 -9.1875303e-01   3.8867327e-03
  6.6115230e-01   1.3317732e-07
 -7.6061106e-01   5.0502971e-05
  8.2355762e-01   1.4119870e-03
  2.7698979e-01   6.7089614e-03
 -3.4899390e-01   1.0505702e-03
  1.4468126e-01   1.7277668e-04
  1.5509389e-01   6.8836314e-05
  4.0139142e-01   2.5735055e-03
 -2.2284341e-01   1.6946961e-03
 -1.4530095e+00   2.9676908e-04
  1.5659162e-01   6.2567987e-03
 -4.9356371e-01   4.0282073e-04
 -2.1456184e+00   4.5129037e-04
  3.1307694e-02   4.3910863e-05
  1.7950833e-01   2.2954314e-06
 -2.9594162e-01   3.0755539e-06
  1.9641213e-02   6.8069557e-03
 -3.4194887e-01   3.2957554e-02
  3.0083266e-01   2.1649504e-02
 -3.4514979e-01   5.6476879e-04
  1.8297157e-03   7.2995783e-04
  1.2948062e-02   3.7741927e-05
  1.8048677e-01   3.3064091e-05
  1.1396705e-02   1.4577217e-04
 -1.5472043e-01   1.7938664e-02
 -9.4497399e-03   2.3270122e-08
 -1.2333976e-01   1.0978850e-03
  1.9128625e-01   4.0271148e-04
  2.1726629e-02   7.7479071e-04
 -1.5936485e-01   6.4292960e-03
 -6.2044859e-01   1.1267052e-04
 -1.1323698e-02   3.9946809e-03
 -7.7001387e-01   3.3818542e-05
  1.2304012e-01   6.3186040e-04
  2.4059553e-01   1.3407326e-02
 -2.9362160e-01   5.5197030e-03
 -5.5536139e-01   7.1064476e-03
  2.7481144e-02   6.7953026e-04
 -7.5065911e-01   5.0686632e-04
  1.1527087e-01   8.4493747e-03
  7.1079087e-01   2.7119499e-05
 -3.6208761e-01   1.1023534e-06
  8.9343733e-01   6.5395352e-07
 -4.6976984e-01   2.4999003e-04
 -3.1624624e-01   2.7781292e-03
  2.7457693e-01   1.9852263e-03
 -3.8159691e-02   8.3322972e-03
 -3.8347533e-01   2.5497479e-03
  1.2749830e-01   8.9207606e-05
  4.3344077e-01   7.2001466e-03
  7.0498593e-02   6.3700909e-03
  3.1004581e-01   1.3037841e-03
  4.0215999e-01   9.4596917e-06
  1.1984107e+00   4.5684658e-08
  1.3032911e+00   1.1403368e-05
 -1.8912256e+00   1.9823949e-06
 -9.2625666e-01   2.6010584e-08
 -1.5102771e-01   1.2100182e-07
  6.0818356e-01   1.0574656e-06
 -2.4868243e+00   3.4798572e-06
  2.3699811e+00   9.7480029e-07
  3.8992697e-01   1.1464585e-05
  1.4838879e+00   1.6342692e-05
 -3.3871379e-01   2.7489212e-05
  3.1941748e-01   4.6769596e-06
  4.1823456e-01   2.3914443e-05
 -7.6705235e-01   5.9248117e-07
  1.5691676e+00   1.1332935e-08
 -7.9171622e-01   1.7043418e-04
  1.6161839e+00   1.9048464e-04
  1.5989429e+00   3.1910975e-05
 -4.3874323e-01   1.9879090e-07
  8.1442779e-01   2.1851147e-06
 -5.6734228e-01   4.2921798e-05
  1.0807019e-01   2.6026648e-05
  3.8941345e-01   2.7553094e-06
 -3.9554673e-01   3.7216741e-05
  2.3554689e-01   1.0631238e-06
  9.6185255e-01   2.2153223e-08
  5.6895390e-02   1.3000697e-05
 -2.6691757e-02   4.3701682e-05
  4.6970531e-01   2.4236191e-05
  1.4000998e+00   4.4911320e-07
 -1.4061340e-02   2.0848647e-05
  7.1831006e-01   2.4660105e-06
  1.3553807e+00   3.7896581e-04
 -1.7467529e-02   2.4813502e-03
  2.4684611e-01   7.7512659e-06
  2.0462891e-01   7.9064703e-06
 -1.0523263e+00   1.6439048e-03
  3.9179152e-01   1.9084091e-03
  9.3814677e-01   7.8612575e-06
 -3.6568695e-01   3.3338150e-04
  1.9511992e+00   1.6361187e-04
  1.0683383e+00   1.4136353e-03
 -1.8221495e-01   2.1529019e-04
  2.7693245e-01   3.8648516e-02
  1.6371091e-01   8.9948298e-04
 -4.2951775e-01   7.9477568e-06
 -1.3397404e+00   4.1222211e-04
  1.3887017e+00   1.2286020e-07
 -2.9583913e-01   9.5719530e-05
 -4.1777277e-01   4.8546281e-06
 -1.4370338e+00   3.0309129e-05
 -1.0206662e+00   1.1909035e-03
 -6.0855293e-01   1.7295292e-04
  3.0831772e-01   1.8750404e-06
  7.2856146e-01   2.3363101e-04
  1.6605867e-01   1.1978974e-04
  2.0899680e+00   1.2525665e-05
 -2.0079527e+00   1.9878711e-07
 -9.3626663e-02   1.5433029e-04
  6.6715312e-01   1.1795377e-03
  1.3818115e+00   5.6242076e-04
 -4.3420881e-01   1.2273273e-05
 -1.1135644e+00   1.5917106e-03
  1.4845029e+00   5.1862391e-04
  3.2023644e-01   7.4329853e-07
  8.1588501e-01   2.2526286e-04
  1.2021579e+00   2.8372207e-07
 -2.1635447e+00   1.2044070e-04
  5.2574348e-01   2.2038628e-05
  9.1956335e-01   6.2378950e-04
  7.1355939e-01   2.3599612e-06
 -2.1060808e-01   6.4854226e-05
  2.6917803e+00   9.7649614e-04
 -3.0403706e-01   1.2007031e-05
  3.3370439e-02   3.6359247e-04
 -2.9302683e-01   2.7043512e-04
  6.9156778e-01   5.3612912e-06
  8.7246519e-01   3.8388226e-04
  4.2321581e-01   3.5313299e-04
 -2.8567545e+00   5.0346199e-03
 -1.6063915e-01   3.9377566e-03
 -8.1557947e-01   4.1733383e-06
  1.9721849e-01   5.1495973e-03
  1.1812722e-01   7.8348772e-10
  1.2565020e-01   3.9121462e-03
 -4.1038513e-01   8.4738736e-04
  5.4846364e-03   4.6471641e-03
  2.2165725e-02   3.5768309e-05
  4.3711433e-01   1.2015955e-03
  1.1091257e-01   5.9663348e-06
  2.2087435e-01   5.5598933e-03
 -7.1832508e-02   7.1205785e-03
  3.5375962e-01   1.5626211e-02
  1.3470740e+00   1.4420558e-06
  8.9560819e-01   1.7616888e-08
  3.3584452e-01   6.9142025e-08
 -4.6011236e-01   1.3045423e-06
 -1.0195472e+00   3.0172552e-07
 -5.1370883e-01   3.7658433e-04
 -3.4269977e+00   8.3227977e-05
 -8.1451690e-01   4.8525600e-08
  3.5761476e-01   1.3345885e-05
 -1.9849738e+00   1.7397295e-04
 -1.0720531e-01   1.1876683e-04
 -1.4662760e+00   9.2348848e-05
  4.4741237e-01   4.6846602e-05
  9.1334969e-01   9.9755416e-04
 -6.7992646e-01   3.9436884e-04
  4.3691000e-01   4.8091664e-05
 -1.5377762e+00   3.8982346e-08
  2.2737803e-01   3.7519191e-04
  9.3358256e-02   4.6277805e-06
  1.1462188e+00   2.9382165e-05
  9.9519354e-01   1.6195391e-06
  6.2037528e-01   6.1308866e-04
  1.9921111e+00   4.3835071e-06
 -2.7244097e-01   4.5788351e-05
 -1.0052439e+00   1.2487911e-07
  1.5781533e+00   7.4253262e-07
 -3.5290718e-01   5.6519940e-07
  9.8226947e-01   2.6835366e-07
  7.1281338e-01   4.2478001e-04
 -1.7496924e-01   1.5699871e-04
 -3.5942988e+00   3.9817081e-08
 -2.1713912e+00   1.8196196e-06
 -9.5363784e-01   1.5828275e-04
  2.3913770e+00   7.9205593e-06
 -1.6185879e+00   1.9231635e-04
  2.6793155e-01   4.5719437e-04
  2.2563014e+00   4.4458080e-04
  1.7320197e+00   7.9426347e-05
 -1.6328856e+00   1.6410560e-04
  1.1425954e+00   1.1895971e-04
 -5.5094022e-01   3.6696207e-03
  1.2550159e-01   3.0626936e-04
  1.5528908e+00   6.5997637e-07
 -9.5144942e-02   1.7425878e-05
  1.2338238e-01   1.2098087e-03
 -3.8739186e-04   7.4360967e-02
 -6.5764403e-01   8.5100916e-04
  8.1398571e-01   1.0746787e-05
 -7.1060801e-01   2.0042596e-04
  5.9278462e-02   1.9048611e-04
  7.4802816e-01   1.1513123e-04
 -7.8931928e-02   9.4441617e-08
  1.8195120e+00   2.7305232e-05
  3.7724632e-01   5.7516684e-04
 -1.3780154e-01   2.1314048e-05
 -1.4873412e-02   5.5822317e-04
 -5.8893442e-01   2.6675928e-06
  1.4573385e+00   2.0417385e-03
 -5.1309115e-01   2.4391322e-05
  2.8194398e-01   6.9176051e-05
 -1.0977744e+00   2.9386010e-03
 -8.2848525e-01   1.6599101e-03
 -1.9947076e-01   2.2007127e-05
 -7.9493207e-01   4.0117829e-04
 -1.5097189e-01   1.4349463e-06
  3.9593336e-01   1.2255147e-05
 -7.2108239e-01   2.3357164e-04
 -3.3714899e-01   6.7728123e-04
  7.7836394e-02   1.6026123e-04
 -9.6028650e-01   2.8574881e-05
 -6.9897413e-01   7.8116518e-06
 -9.5893985e-01   5.5416767e-05
 -1.6729049e-03   3.9917650e-04
 -1.6475216e-02   2.1449801e-05
 -3.3331883e-01   5.9250426e-05
  1.4136316e-02   4.3958687e-04
  1.1049182e-01   7.2809179e-08
  1.7846057e-02   7.6711958e-04
 -1.1070384e-01   7.5943861e-04
  3.8948280e-01   6.6990753e-05
 -3.9128420e-01   1.1663516e-04
  2.6258025e-01   2.6105657e-02
 -1.6322049e-01   1.4586458e-06
  1.5364337e+00   5.3843972e-04
 -6.9232143e-02   7.1655450e-06
 -1.6424043e+00   2.6310698e-04
  9.0461545e-02   7.8311648e-05
 -1.7794108e-01   1.7500903e-02
 -2.3752576e-01   1.5088196e-04
  3.4119278e-01   2.8287162e-04
  2.2543404e-01   2.7371261e-03
  1.6854642e-02   5.2884284e-02
  5.4464683e-02   9.7610932e-03
  6.1145470e-02   2.8271746e-04
 -3.7455881e-01   3.8496200e-05
  9.7995937e-01   2.2334307e-05
 -1.6623490e+00   1.2523689e-05
  1.1545821e+00   4.5526867e-05
 -7.3867953e-01   7.5213546e-07
 -2.8288505e+00   2.1372349e-03
 -4.1237431e+00   1.2412448e-03
 -1.1493371e+00   5.9669924e-06
 -3.8853794e-01   3.4827247e-06
  8.8365191e-01   9.3844370e-04
  4.5784754e-01   4.2185115e-04
  5.0685972e-01   7.3648487e-05
 -2.7481642e+00   9.2922867e-04
  4.1209793e+00   4.8076650e-05
  4.8113057e-01   3.8502258e-04
  1.8476394e-01   1.9043180e-05
  1.5834198e+00   2.5207640e-04
  1.3361175e-01   9.7332986e-07
  7.5079143e-01   1.1644014e-04
 -4.3454844e-01   3.2522465e-05
  1.3743210e+00   3.0433291e-06
  4.5501217e-01   1.9795756e-04
  1.6634619e-01   3.6020671e-09
  3.2484883e-01   7.2009971e-05
 -3.2891610e-01   6.2714203e-04
 -2.0623858e+00   9.2735663e-06
  1.0485530e+00   4.3986805e-08
 -1.4080248e+00   1.9714073e-04
 -5.4026347e-01   8.3059767e-06
 -4.6840695e-01   2.5412568e-04
 -1.3588741e-01   2.3456563e-05
  4.5280959e-02   6.3177547e-05
  1.0408464e-01   1.5226078e-05
 -2.5783372e+00   2.5462713e-03
  2.3548016e-01   2.2717253e-03
  2.2957484e-01   1.0093036e-03
  9.7721875e-02   1.4230573e-05
 -8.1772065e-01   1.4088874e-02
 -2.8263085e-02   6.1280876e-03
 -2.6708162e-01   1.4866987e-04
 -8.6051412e-02   4.6270862e-04
 -1.6688137e-01   4.7388839e-05
  6.3351202e-01   3.5464326e-03
  4.6140317e-02   1.0520659e-03
  6.9683760e-01   2.0943573e-03
  1.4908166e+00   5.5447285e-04
 -2.5650731e-01   1.3260054e-03
 -1.0566034e+00   7.4420163e-06
 -6.6366732e-01   6.4268257e-05
 -2.5521630e-02   4.1877270e-06
  1.1749476e+00   8.8983061e-06
  4.0961313e-01   8.3869609e-06
 -5.5351084e-01   6.4537056e-07
  5.4962397e-01   5.8717339e-04
  1.2315181e+00   2.2658982e-08
 -6.3637251e-01   3.6862544e-05
 -3.3375893e-02   1.8665286e-06
 -1.7725399e+00   5.3996655e-06
  1.6400462e+00   1.0381603e-04
  8.2639390e-01   3.2919826e-05
  3.4086356e-01   5.6195772e-06
 -7.8596580e-01   5.5241157e-06
 -1.9687849e+00   3.7369045e-07
  1.8455909e-01   5.8678237e-05
 -3.1971601e-01   1.7243238e-04
  1.0125258e+00   3.5041091e-06
 -1.9663138e+00   1.6079222e-04
  1.6386592e+00   4.2242516e-07
  1.5873079e+00   4.7288562e-05
  4.6558350e-01   1.0966261e-04
  1.0197801e-01   1.4606465e-04
  8.9740616e-01   1.8792578e-07
  2.1041241e-01   1.3459523e-05
  1.1558360e+00   1.7011249e-04
 -1.7825092e+00   4.8483304e-05
 -5.8939564e-01   1.5651557e-06
  1.4709397e-03   8.5473061e-05
 -2.1490224e-01   3.5349109e-05
  7.8884560e-01   4.6521996e-05
  2.7002984e-01   1.5046939e-05
 -1.9370971e-02   1.7572159e-04
  2.4363296e-01   3.0021244e-03
 -4.7785091e-01   3.0972191e-07
 -2.5755507e-01   5.1378098e-05
 -8.5465740e-03   3.9383317e-06
  7.5722307e-01   8.0485530e-03
  2.0854761e-01   6.7258268e-05
 -4.3651737e-02   7.6524055e-05
  1.3023638e-02   5.4652436e-04
 -1.0963470e+00   1.2632877e-02
 -1.4155823e+00   6.5748696e-07
  5.4025990e-01   3.4090253e-06
 -4.1753259e-01   1.3059436e-02
 -8.6622816e-03   2.8438522e-05
  7.3328383e-02   3.8225702e-03
 -2.5823021e-01   1.3739120e-05
 -1.2295596e-01   2.8961463e-04
  1.2777451e+00   8.1503813e-06
 -3.3719182e-01   2.2992284e-04
  8.1531733e-02   1.4967709e-04
 -3.2406974e-01   2.1432377e-03
  7.5059921e-01   2.5229359e-05
  3.7334582e-01   1.1582987e-03
 -5.2806865e-03   4.9301051e-04
  7.0950401e-01   2.0600136e-04
  3.8454413e-01   6.5327113e-05
  1.6344235e+00   2.8182487e-05
 -2.5289498e-02   3.0299620e-06
  1.5080041e-01   8.1640565e-06
  5.6595176e-01   1.0640794e-04
  9.1727540e-02   2.0999279e-02
 -4.6662565e-02   7.6286560e-05
 -1.5222465e-01   1.2279615e-03
 -5.2160090e-01   4.8339891e-04
  8.1043564e-02   1.3276788e-03
 -3.2805070e-01   2.4609975e-05
 -5.8500099e-01   5.3165387e-03
 -7.4360341e-01   7.4444120e-03
  6.0123515e-01   1.1502065e-02
  2.5640193e-02   3.9137057e-03
 -1.9334543e-01   4.8616232e-04
  5.7191122e-01   1.2608765e-04
 -7.4672118e-02   2.2284726e-07
 -6.8889610e-02   7.2600273e-03
 -3.5276321e-01   1.4734599e-03
  3.0623442e-01   2.7503355e-03
  4.4022030e-01   6.0360198e-04
 -1.6930145e-01   7.0059098e-02
  1.1093430e-01   2.3635728e-02
 -3.6974722e-01   1.7048560e-05
  1.2270549e-02   5.5472157e-03
  8.4536567e-02   7.1434011e-03
 -7.8440338e-01   1.9643377e-04
  4.0825477e-01   1.4830192e-06
 -8.0693752e-02   5.2288495e-04
 -8.7303802e-02   4.3826971e-02
 -9.3471754e-01   6.6175051e-02
  1.2222176e-02   1.7029090e-02