60
energy=-62128.8439249616 config_type=nep3xyz Lattice="25.0 0.0 0.0 0.0 25.0 0.0 0.0 0.0 25.0" Properties=species:S:1:pos:R:3:force:R:3
C 13.68487194 11.89837020 15.76845340 0.9751354975807374 -2.4910155503456086 -0.5606255108955936
C 12.53116534 12.62739222 16.00473695 -2.1867771652838073 2.740137827912325 0.6819832962717431
C 11.33590897 11.84256272 15.71758234 2.0129499258026744 -0.6599290088613442 1.2545020686493924
C 11.79195137 10.54675602 15.30320554 1.7752128542558412 0.9397370912571501 1.613628188586845
C 13.24563905 10.56585808 15.35027498 -0.21682020275719152 -0.7385205203844569 -0.4991690672603253
C 9.52423913 14.07020662 13.67141106 -3.1566186421501237 -4.40437282302781 -1.6361191139671034
C 9.07885948 12.71539438 13.13451444 0.6295966268063874 -1.4288330640279312 2.5531259638247015
C 9.58839868 11.72576106 14.11621770 -1.060618135671345 -1.169857364722466 -0.7370374173580202
C 10.20863135 12.38776680 15.21665006 -1.1126494589234965 1.9021822265472546 -1.7790864234371544
C 10.19440166 13.82390740 14.84768750 1.3424096735152153 -0.7533700155132662 3.0336319573595185
C 9.97085497 10.07374955 12.25292419 -0.1196934099534266 0.08904954725149808 3.220475900857618
C 11.13415866 9.30944759 12.03696226 1.2499725933082704 -1.2266364794118276 -0.4894636761642894
C 11.85377307 9.16121608 13.30083795 0.8617520790482637 -0.5413573862087961 -0.726026946152831
C 11.17500523 9.90974303 14.28835631 -1.053942044776544 -1.5177042065186153 -0.15539445232251778
C 9.99906421 10.41873530 13.73833337 -2.091839701001341 2.276440103868419 -2.3001408398798446
C 13.93952289 9.33768695 12.07321283 0.7858353746226275 -1.3376303902479525 1.590859244663528
C 15.16557554 10.03875619 12.34320611 -0.11587023661844872 1.4621393338104287 1.107821595387879
C 15.10667184 10.42860258 13.80486427 0.311870593129894 -0.6792721047988219 -1.951046280873752
C 13.93610960 9.80293667 14.38868097 0.8156807041098376 1.657376644359715 0.9945758774325527
C 13.24914669 9.12705282 13.35255347 -1.0852713737821214 -0.16403640443405273 -1.6963536721840957
C 15.88310591 12.66281213 13.08245506 0.40456597748581496 0.7801239099272962 2.9597938765172187
C 15.47820837 14.01323412 13.54415447 -0.9457271302480157 -1.1054294078614413 1.2351122526581482
C 14.70617519 13.85782865 14.79445505 2.306667059035681 -1.338301180557143 -0.18202351004646267
C 14.81435197 12.43916724 15.16801189 -1.0055195172407443 1.3429504764702498 0.0007021459794813195
C 15.50498866 11.70546691 14.14622297 0.353270401207631 0.6915235875616446 -0.7237305680511815
C 13.13779835 15.66289857 14.13905632 1.2392524947748365 -2.051913989226747 0.5747797629910834
C 11.70289672 15.56591998 14.16985702 1.0855605099160717 0.2519589019088387 -0.22230378692562364
C 11.31408223 14.57568123 15.16535345 -0.922170859329321 1.182649670361702 -1.1037767076972136
C 12.47642993 14.02575619 15.75791174 1.1835489718349508 -1.5199728856688401 0.09432104320256493
C 13.63547951 14.63961360 15.14295696 -0.9052801992740482 1.2451761608429341 -1.1502812280683128
C 11.73756391 15.91240069 11.67658316 0.9423337084218164 -0.4163663195750224 0.6171153618553258
C 11.08737943 15.18056480 10.63740783 -3.375461235911996 -1.825839401155258 1.1274490462759506
C 9.89687096 14.50786706 11.31440491 1.4388536841285815 2.314742652634603 -0.824630964518054
C 9.88337668 14.92450188 12.71543941 0.8674960691044098 0.7345678555472643 -2.3568332788420165
C 11.08193892 15.62316151 12.93429271 -0.5691854383299775 2.168801906080994 -0.0029591965692485124
C 9.54664970 13.25850985 10.91814860 -0.7119107270787082 -0.24521032724861314 -1.7000225510526328
C 10.18976525 12.55106164 9.84381693 1.0319564755170807 0.8124017060868516 -0.8301034426649623
C 10.23647027 11.14474320 10.12877147 -0.77203264482432 1.1392457973131946 -0.3838321491865298
C 9.55287027 10.99850903 11.34801704 -1.3116970440755398 -0.13589371438147338 1.294540363236655
C 9.08212127 12.29141508 11.82236167 -0.2471871872850366 0.5188128290812588 0.9139459279031492
C 11.36078228 10.41332645 9.87801710 0.5066654743468563 -2.807662257675822 1.0940112373760817
C 12.52969149 10.99591921 9.39631265 -1.5558825446582893 2.3084705450908967 -3.215630722679278
C 13.65178254 10.41245282 9.94380080 2.701609264652872 -1.276862508937468 0.856977617338871
C 13.25609698 9.39838425 10.88781012 -0.23628520315773235 0.4475381050019506 -1.0185415639546676
C 11.82825501 9.35709230 10.81468012 -1.6826726711896884 1.009733751448391 1.3021582273076864
C 14.81964355 11.12333161 10.17536910 0.129421386376901 1.0068055781083 0.11968997255318665
C 14.72656789 12.53396680 9.86820799 0.1430321049145238 1.6834617198736446 -0.9429850417045121
C 15.43634123 13.32760733 10.83731443 0.36960534380120685 -2.0367246005944444 0.06052846445983277
C 15.97097959 12.32425177 11.77642934 -0.10354025464781524 0.9397727768166249 -0.022655739114849045
C 15.62460089 10.98072601 11.40678999 -1.798268032098798 -0.4221527360908595 -1.0926822633176752
C 14.93667931 14.52841302 11.28273439 0.5158013964661717 1.9597681779792397 -0.8453088774776027
C 13.84685433 15.25590641 10.62445803 0.46633404517569177 -3.178367450921784 -0.5143424709543498
C 13.12354149 15.89443864 11.70045082 -0.3576847003270792 0.1712526939333918 -1.3862397244390086
C 13.82240050 15.70315080 12.90871155 -0.14888160896190802 1.2403729324114443 2.037980475489759
C 15.01398420 14.95110581 12.66559643 0.029850919131427667 -0.8736306118012618 -1.130968439289456
C 13.19480344 14.42410287 9.64968980 -1.6388835127769663 2.2911673149490057 0.8947148364792856
C 13.65541277 13.17003135 9.20015639 -0.6891812807280119 -2.4083244831009596 0.06172684965403983
C 12.44757511 12.30465692 8.89244838 1.7746492598531498 1.8686194424346692 1.8156575471331295
C 11.30277110 13.15554811 9.26599637 -1.1024296554369835 -3.317428140374093 -1.2324553918225236
C 11.67815436 14.41336395 9.65314889 4.02558279016391 2.8892352349708297 0.30541708711671733
