60
energy=-62182.73409910776 config_type=nep3xyz Lattice="25.0 0.0 0.0 0.0 25.0 0.0 0.0 0.0 25.0" Properties=species:S:1:pos:R:3:force:R:3
C 13.68487194 11.89837020 15.76845340 0.9479492579206764 -2.410501875031877 -0.6255374025935091
C 12.53116534 12.62739222 16.00473695 -2.1184917036309847 2.745780572969543 0.5765604394407842
C 11.33590897 11.84256272 15.71758234 1.8976012078657885 -0.6409406375266838 1.3099150031241211
C 11.79195137 10.54675602 15.30320554 1.785030189304842 1.0526285701110285 1.3457338399432694
C 13.24563905 10.56585808 15.35027498 -0.1735241954449346 -0.7837719511095155 -0.5147361328489808
C 9.52423913 14.07020662 13.67141106 -3.037551431026581 -4.3142000553923925 -1.63850105971272
C 9.07885948 12.71539438 13.13451444 0.7091950504016338 -1.4471614039295269 2.4298055251818087
C 9.58839868 11.72576106 14.11621770 -1.156479893416869 -1.2304904115140105 -0.665611881426085
C 10.20863135 12.38776680 15.21665006 -0.865455294811429 1.861014115668347 -1.9343932998125226
C 10.19440166 13.82390740 14.84768750 1.3614177283905577 -0.6946892507841661 2.9482673645906092
C 9.97085497 10.07374955 12.25292419 -0.03125560085454598 0.19545388844941666 3.1148775678620204
C 11.13415866 9.30944759 12.03696226 1.2116284742837027 -1.2623884084470864 -0.5239691064926919
C 11.85377307 9.16121608 13.30083795 0.9487747999585961 -0.3735997213046102 -0.7600821973227566
C 11.17500523 9.90974303 14.28835631 -1.094348796419398 -1.6139478683403317 -0.028302727030972877
C 9.99906421 10.41873530 13.73833337 -1.9017359467813508 2.428811323649531 -2.3234501394251272
C 13.93952289 9.33768695 12.07321283 0.8072008983694346 -1.4245280832618417 1.494962721597128
C 15.16557554 10.03875619 12.34320611 -0.25951860081245676 1.6276515817040202 1.051028772182673
C 15.10667184 10.42860258 13.80486427 0.34504354604461257 -0.6156984955504399 -1.8808644252569755
C 13.93610960 9.80293667 14.38868097 0.7207110353156919 1.7587950354541515 0.9093501457112924
C 13.24914669 9.12705282 13.35255347 -1.142391407522974 -0.06935405540905726 -1.6593967194748525
C 15.88310591 12.66281213 13.08245506 0.47861861120434335 0.7678633357041025 2.8705002832973836
C 15.47820837 14.01323412 13.54415447 -1.0742746740393236 -1.0998698235835564 1.1260316963870192
C 14.70617519 13.85782865 14.79445505 2.2681335293494334 -1.2575523253897023 -0.12700712081226656
C 14.81435197 12.43916724 15.16801189 -1.1207783845114856 1.2832446960593342 -0.08500265739123555
C 15.50498866 11.70546691 14.14622297 0.20625341852211504 0.653311476514448 -0.7757961790985591
C 13.13779835 15.66289857 14.13905632 1.2091713749133204 -2.103209324065849 0.478648803135906
C 11.70289672 15.56591998 14.16985702 1.1036121080654686 0.10067377170939157 -0.332781453826918
C 11.31408223 14.57568123 15.16535345 -0.9277012918227461 1.1093382719353733 -1.1030021143815787
C 12.47642993 14.02575619 15.75791174 1.1506715980011015 -1.5503549291829084 0.008369504757327213
C 13.63547951 14.63961360 15.14295696 -0.8734774317514191 1.107040680684946 -1.2043849536845155
C 11.73756391 15.91240069 11.67658316 1.022265495555661 -0.6389398727994782 0.6354165056933936
C 11.08737943 15.18056480 10.63740783 -3.2802888197509095 -1.8019412928989702 1.067445226419036
C 9.89687096 14.50786706 11.31440491 1.4374311347473923 2.1471006198960296 -0.7827775930085034
C 9.88337668 14.92450188 12.71543941 0.9834901075241294 0.5463438009077264 -2.2915245438439302
C 11.08193892 15.62316151 12.93429271 -0.6082846814398356 2.3020383118593446 0.06139915654737782
C 9.54664970 13.25850985 10.91814860 -0.7396796528741455 -0.15234246390564968 -1.7126392690888337
C 10.18976525 12.55106164 9.84381693 1.2061615288769776 0.8011459110153791 -0.6995937437322488
C 10.23647027 11.14474320 10.12877147 -0.6747202896380907 1.1227626646939648 -0.3314330967286847
C 9.55287027 10.99850903 11.34801704 -1.2806970537818196 -0.19026060385612603 1.3324550613609514
C 9.08212127 12.29141508 11.82236167 -0.1185211651499129 0.5460244512434614 0.9876324897323486
C 11.36078228 10.41332645 9.87801710 0.47146861373274185 -2.6763160525562597 1.1421369437378937
C 12.52969149 10.99591921 9.39631265 -1.5143840613313313 2.265205430318011 -3.2613190506986567
C 13.65178254 10.41245282 9.94380080 2.697037603752984 -1.211471122002315 0.8453462752016689
C 13.25609698 9.39838425 10.88781012 -0.2611920617323012 0.5662157702248843 -0.8901407309047712
C 11.82825501 9.35709230 10.81468012 -1.6397981079029285 1.1175658304493883 1.4180056850192864
C 14.81964355 11.12333161 10.17536910 -0.02007416731364208 1.0233484600641412 0.23704313887525638
C 14.72656789 12.53396680 9.86820799 0.1738992402527084 1.6659584140236745 -1.0404979366012332
C 15.43634123 13.32760733 10.83731443 0.17246980235914477 -2.0200963791648716 0.16890305119969481
C 15.97097959 12.32425177 11.77642934 -0.2248989462887092 0.9252734786353364 0.08507214493421908
C 15.62460089 10.98072601 11.40678999 -1.7923764723268125 -0.430876177892296 -1.0442049526933668
C 14.93667931 14.52841302 11.28273439 0.6742330133027651 1.9477176596461387 -0.9191436974517102
C 13.84685433 15.25590641 10.62445803 0.300774831561117 -3.3363499933872602 -0.38056498544735523
C 13.12354149 15.89443864 11.70045082 -0.3830411270265877 0.21041036228017287 -1.3635876846476513
C 13.82240050 15.70315080 12.90871155 -0.17682869192422865 1.2186493639174345 2.0479154709636225
C 15.01398420 14.95110581 12.66559643 -0.08177463491295782 -1.012551808129444 -1.057433641353713
C 13.19480344 14.42410287 9.64968980 -1.5284980548267109 2.3095866192543935 0.800241407042041
C 13.65541277 13.17003135 9.20015639 -0.7167841629414748 -2.38162910418159 0.24184109580885113
C 12.44757511 12.30465692 8.89244838 1.741702212634877 1.8208561034189379 2.024260796303952
C 11.30277110 13.15554811 9.26599637 -1.168905308912264 -3.22406936356742 -1.2928216226597813
C 11.67815436 14.41336395 9.65314889 3.948436559284153 2.7318297546531345 0.49838233706216206
