60
energy=-87.60003760837 config_type=nep3xyz Lattice="25.0 0.0 0.0 0.0 25.0 0.0 0.0 0.0 25.0" Properties=species:S:1:pos:R:3:force:R:3
C 12.76239834 12.03979543 15.99216898 -0.5880535239431679 1.4256071616156805 0.3194747514797377
C 14.08028503 12.05841135 15.52497564 3.424841307281792 -1.140783889219895 1.016676381685736
C 14.58497204 13.38963237 15.30193660 -0.9931737751773211 0.5494302142779409 -1.498887851878791
C 13.40296051 14.26648030 15.44969806 0.2734330575086092 -2.25530505223993 1.6863795687306702
C 12.32917497 13.43230933 15.93748270 0.39853012154284195 0.32804366997909656 -0.33221454571061043
C 15.93498095 12.79319246 12.04711290 0.3390578807949389 1.439836629052569 0.7593787409465996
C 15.41721624 14.11837073 11.89355423 0.3884270731057312 2.1105921123717066 0.09575020261569164
C 15.16882017 14.69639542 13.23360149 0.17168703098214222 -2.155128929016118 -0.2667507004163542
C 15.43188418 13.58795299 14.19564830 -1.0668480291779106 1.1800150030562795 0.8240670728890196
C 15.91891853 12.47517770 13.51087699 0.4519237344284228 -1.6638671671401088 -2.7223093242940686
C 13.27567049 16.00511013 12.29191981 0.5102942537599653 -1.9154496699961052 0.7276510337974567
C 11.89529215 15.97166985 12.68176455 -0.7309622046878959 -0.46326636377014924 0.27287970979119747
C 11.85119178 15.58217386 14.07494289 -3.0611425350407186 -0.88820023082097 0.32786805871294894
C 13.07692416 15.23428536 14.58503844 4.782511451306687 2.262747289363397 -2.838575763781036
C 14.08497305 15.47972380 13.42709476 -2.5521066947035083 1.3286491237123188 0.7244136602022687
C 9.79392464 14.41274230 13.60089518 -2.080868333113221 -2.0763025425600805 0.9111544307084791
C 9.29047097 13.09407115 13.98733601 2.0771577997096147 -2.4661339917827965 0.02485723535732446
C 10.20366789 12.59395954 15.10269877 -1.5304114356958005 1.8347283217760362 -0.491226053772043
C 11.08145452 13.74915150 15.48177850 -2.3628597097653166 -2.616189559688395 -0.5035192199880143
C 10.78722195 14.77652863 14.55262404 1.2061388690061494 2.036778935141516 -1.1131820723347607
C 10.28397077 10.40993321 14.16650839 -0.8021443108757051 -2.2298657656407452 -0.9319807540915765
C 11.40958310 9.50522497 13.99021032 -0.05463215334660403 0.9030275377867577 0.8915304012606461
C 12.41954641 9.85464572 14.97731909 1.1088587196978845 0.5944414489501335 -1.625396583581655
C 11.91934396 11.00862154 15.67653951 0.0666509629013826 -0.9235134075852776 0.33184422296076993
C 10.57257678 11.25292006 15.24449256 -0.07410647631628171 2.7734086663287587 0.10098720139443448
C 14.07919578 9.55641864 13.20842128 0.5216239950216537 -1.3544937691276084 -0.7881621980274582
C 15.19317194 10.27572447 12.71486844 0.9337682414744979 0.23149444706601566 0.8738315806006779
C 15.57352507 11.15240648 13.82353122 0.21916319369807707 1.249219087379616 -0.41034224379661416
C 14.72539858 10.92348234 14.96194356 -2.241746836220507 0.2335093077630848 -1.0137224714636714
C 13.77088123 9.88193736 14.53034734 -0.5143046624125522 0.643633940445109 2.05597468925931
C 14.24738965 10.22859332 10.39563711 0.5320131403736091 0.9603907025784753 2.0204700478548636
C 13.96994463 11.38005256 9.51927815 0.5425556062909371 -2.2413528799312443 0.25827763471049736
C 14.85205501 12.42151727 9.88640362 0.7282950275460892 -1.1767080578624707 -0.5939062368033644
C 15.74514814 11.94611126 10.98867314 -1.705391349630529 -0.37732899850590795 0.2609578202688169
C 15.31566956 10.60142953 11.37909442 -1.0372337063207786 0.7251379004391377 -1.9050620932988518
C 14.38316577 13.70033749 9.68539537 0.8194698287432381 1.2759933806424406 1.8074013588053395
C 13.03646778 13.99856647 9.29373805 1.0645245290711298 -0.6102001301847694 0.3610068735215532
C 12.53748434 15.06837226 10.14286542 1.7675730996571941 -0.297678718315669 -1.6586614388506693
C 13.55183552 15.45053645 11.06228476 1.8223218492014084 0.24384018495210913 -1.3118204543719396
C 14.73954041 14.61356489 10.75631472 -0.7016068270942103 -0.11479939124830849 2.015806326757686
C 11.24068192 15.12845053 10.45832338 -3.190945468049542 -1.1458609974228386 1.6406966212148981
C 10.32023072 14.00975860 10.13001911 1.9185911150568584 -0.06076787503305086 -0.8297341089677024
C 9.41633748 13.76158743 11.24949104 1.147841813069309 1.8813153793441983 -0.9192738632954243
C 9.75943146 14.73274853 12.26164776 1.3211222523560229 0.6433207890383681 0.4192840665413389
C 10.89631101 15.48938156 11.80754584 0.5576941004131525 1.6055491046242967 0.17643654357514185
C 9.06453771 12.50323948 11.59066134 -0.19671029319027597 -1.581751739941279 0.043666278116706175
C 9.59037777 11.39559654 10.81920025 -0.6143512737452151 -0.37146134609936254 0.46750665245500794
C 9.81610276 10.28211721 11.72731905 -0.0302482773498276 0.17906668984527005 1.0217325973111364
C 9.45606799 10.72086563 13.09301954 0.37215020793468445 1.517693454960829 -0.6772185854298844
C 9.00659782 12.11988070 12.97270002 0.3903635516400343 0.38433761059774374 1.4192542637569183
C 10.89943327 9.42524081 11.57471865 1.1071384228734813 1.7786773395125148 -1.3511485593588302
C 11.80474232 9.66410286 10.41170429 0.8129069848118022 2.334225332363733 1.1562675171065768
C 13.18409808 9.58816090 10.99226012 -1.3590492372791985 -1.272569512402703 -3.5157672724939406
C 13.11252818 9.16976658 12.32105984 0.4726008733299661 9.832440899584766e-05 0.18755949301572852
C 11.77843046 9.21977181 12.70853736 -2.0587710344896997 -2.037025977177874 -0.1028029303848427
C 11.60473184 10.81281146 9.57832357 -0.9787945536330375 -3.0438741198082324 0.3534176178116404
C 10.40952152 11.62480451 9.73295568 2.178282009837069 -0.07613507470885333 -0.09498603900286606
C 10.92393317 12.94941329 9.41081421 -4.661009488691909 0.6881162861189857 1.529662510003634
C 12.25984355 12.89045920 9.02099559 -0.8555248832276435 3.331209781976088 -1.1847306806789546
C 12.68116454 11.59181124 9.01495137 1.6049380764691348 -2.120026906057437 1.5959693111895283
60
energy=-87.31051611906 config_type=nep3xyz Lattice="25.0 0.0 0.0 0.0 25.0 0.0 0.0 0.0 25.0" Properties=species:S:1:pos:R:3:force:R:3
C 12.78927368 12.12731931 15.92290154 -2.520181816176924 0.6058518576918551 1.825274041053007
C 14.13605137 11.99494343 15.59973828 1.696422175711945 -0.7179688933868583 -1.0309134827151731
C 14.67388466 13.28658752 15.19299762 -0.6884950192687392 -1.0734123866893486 1.7705841169002499
C 13.59241881 14.18728322 15.40345724 -1.9365044776930127 1.1137836307379863 0.10170203642470928
C 12.38899422 13.53745988 15.95555181 0.06356361603327136 -1.1312067352074313 -1.7451422077569283
C 15.99978294 12.60425534 12.01662823 -0.1650773952700202 0.22513240204885948 0.4954612578478326
C 15.65954747 13.98869848 11.85133826 -0.8769201866758047 0.71040590539074 1.2072099075755365
C 15.28224456 14.50208492 13.18563030 2.4289008248473727 -1.8091066681024273 0.6506856100177273
C 15.63065978 13.42737446 14.21621818 -2.171375194507548 1.3352522537644 -2.28541224616601
C 15.87833076 12.26324680 13.44185377 1.0350151605812639 -1.894806291786712 -0.7224597168110045
C 13.55427584 15.80858645 12.23165469 -3.6382071742042714 1.2690220539714365 1.2552383484213192
C 12.11834583 15.99148715 12.61781153 -0.057647271371830344 -1.4777594556962979 0.7931057983009618
C 12.03724748 15.59165576 14.04827422 -0.35780832690206366 -0.08581741497932917 -0.6614218281272193
C 13.34329565 15.14343956 14.45134507 0.00471682884258065 1.487023612119467 0.689426687387865
C 14.24296607 15.35345987 13.38353322 1.1389744300263116 -0.13163790322964064 -0.7609445466040011
C 9.86751517 14.67684821 13.61400143 -0.8417257578211298 -3.0004459291819403 0.9040361396417624
C 9.43833972 13.31386451 14.00904509 -0.833768391445679 1.2771187414121996 0.6991511085609544
C 10.14919544 12.82730467 15.19862493 -0.575689227195934 -0.28295962618860787 -1.7973126538547457
C 11.06511846 13.84576612 15.47232450 3.077406427043858 0.7001051269994111 1.636029025278972
C 10.89942166 14.96039610 14.57822731 0.9587396331693463 0.8675873121223714 -1.8463368325496499
C 10.16545637 10.57959438 14.25882494 -1.3841155779827374 -0.48685789752222963 -3.056589496162891
C 11.23783033 9.66104028 13.98632237 0.9755661043253786 -0.6247868329613642 1.599883197628228
C 12.33157362 9.98077560 14.93695398 -3.169790091640837 0.018039908101194897 -0.5823468541434579
C 11.83917199 11.11870897 15.66374403 2.7142800649984196 0.6996434932191842 0.5537060224694156
C 10.56270003 11.48287705 15.21350065 -0.5220760522360384 1.8546078352083815 2.018481787763144
C 13.94578489 9.30400043 13.24660786 -0.0643872274119597 0.7855649109019145 -0.995815551772616
C 15.03273012 10.07023046 12.72856239 0.8971592198651391 0.12116094921414591 -1.1024379912786972
C 15.43407328 10.95581314 13.82088272 1.2698431341529381 2.269381671415132 -2.332941797777602
C 14.53106819 10.83826225 14.90697684 1.046460290589686 1.4796636587612657 0.38846454512758477
C 13.61053588 9.87023405 14.53967885 -0.04889112555389247 -1.9824993119118905 -0.09632263303370465
C 14.06205332 10.08307493 10.40884677 -0.2799243541276009 -3.5980467564879315 3.381619331263818
C 13.86082991 11.15708241 9.54690420 2.2562472523795525 0.7852422206082478 0.6839417540574222
C 14.80997476 12.18487724 9.97875334 -1.1777237523391872 2.2169836628762973 -3.69996901273592
C 15.61019722 11.71648158 11.01525747 0.5957149861844161 0.5226939168579033 0.9541949496800533
C 15.17698937 10.40475968 11.30619097 -1.6347190057807728 -1.498458968339886 2.821951751920739
C 14.49137493 13.55036373 9.70052936 -0.05971170596654425 -0.9949835523799462 1.8215791306914804
C 13.09127026 13.94459394 9.29268055 2.147694225208944 -3.2457621830761707 -0.12915840298898296
C 12.71168604 14.99621110 10.10450402 -1.6110229414288026 1.1668002804898923 -0.39591719881251464
C 13.76003089 15.34559367 10.99803255 2.5401910267450902 -0.6905450504088386 -1.3346931514318932
C 14.91991102 14.44908075 10.76646277 -1.4941651580884534 -0.21106272060491366 -0.7630247378879025
C 11.34965738 15.11848610 10.45212054 2.2492556015206127 1.5649907929915214 -0.6054762458318287
C 10.37906063 14.21621343 10.05482395 -0.4963032387565023 -2.2389008738546328 0.16331579125260368
C 9.43787311 14.06750406 11.19500913 0.40698620575108424 -3.03193468282459 0.21790305747755326
C 9.95115855 14.86292288 12.23282744 0.0921201176602769 2.7632192638045217 1.6135925903935462
C 11.06823736 15.59645645 11.73850834 1.363242721164749 1.233754660754354 2.138672876831994
C 9.10117324 12.76189836 11.64788414 -0.6746821722262415 0.8191513366097777 -1.527331959252688
C 9.49598842 11.55097300 10.87213718 0.2966664807013105 2.97505828648444 -0.9434518359362689
C 9.74081111 10.55842483 11.79711526 -0.03855453300028423 -1.5426720418129263 2.356899122014247
C 9.44669001 11.08659543 13.17845172 -0.415321055582801 -1.3568654299495821 -1.4012691878195584
C 8.94985138 12.45400606 13.06318959 1.7542023009059269 -1.777876140349681 -1.2786486233775818
C 10.72052453 9.59445116 11.58264842 1.6316084527757662 0.015142769773664973 1.4990178658946303
C 11.66968497 9.77008686 10.47727914 -1.459030432923672 -3.2295816495951732 3.2329400546672185
C 12.96355044 9.24245467 10.94292800 1.9320006024316263 3.864073938755212 -2.058541814151361
C 12.93193787 9.02287173 12.35285983 -1.7495940173390012 -1.1608818096516753 -0.041611403426249124
C 11.53478099 9.12205518 12.77915353 -0.7955576805566348 0.9090196147677735 -2.227034172168007
C 11.41320465 10.76970236 9.62884989 2.454773979053015 1.9119869689857552 -2.0646550157554064
C 10.35611941 11.70966263 9.75647668 -0.7887953755238181 0.7893245969009237 1.5056583106422603
C 10.86709537 13.06505615 9.41651321 -1.8451224037951273 -1.756011076447245 -0.12400351696670925
C 12.19741637 12.86997602 9.01765486 1.561706982256704 2.537281158994311 0.23510320286126804
C 12.63531476 11.51980179 9.20354332 -4.215893330049963 0.13846527273264028 -1.6058681951650076
60
energy=-87.90239012008 config_type=nep3xyz Lattice="25.0 0.0 0.0 0.0 25.0 0.0 0.0 0.0 25.0" Properties=species:S:1:pos:R:3:force:R:3
C 12.78264924 12.16429498 15.95525968 -0.9679031282909837 -0.7197201682628367 0.2579836870022183
C 14.10399365 11.89306903 15.52762603 0.8602304585198188 -0.2867730729040337 0.8813320602155039
C 14.68250239 13.15889757 15.28304319 1.9927696489048259 1.139443464083558 -3.943536742007477
C 13.65429391 14.22679409 15.32097382 0.5154373062460278 -1.7799531302677374 1.4783176667348756
C 12.48884823 13.56073325 15.82293355 -0.5707768836434546 0.6089190756270804 0.27235927300757923
C 15.96168758 12.30551849 11.92320254 0.9225873210962947 2.312571898606111 2.4591032848972114
C 15.64155977 13.72502786 11.86721008 -0.22183780822765709 0.9630665248207472 -1.683362073183815
C 15.43031120 14.29697682 13.14968672 -0.48410948617208077 -0.04565734600901067 0.9252560950174964
C 15.57761457 13.20787011 14.13634109 -1.2357143724150514 1.6227908025711866 0.4581318914683025
C 15.94943093 12.07089718 13.37282755 -0.9341865982856788 -2.1200483113328232 0.20992469008151884
C 13.70411679 15.84441017 12.20750982 0.36856369153060153 -1.2296341221045601 -0.928354298854598
C 12.35904327 16.11811201 12.59250934 -1.8148446534890574 -0.9713033221295918 1.1978413218606516
C 12.26110869 15.73949108 14.02284968 -0.95265412860259 -0.15195857195538046 -0.8750011209352668
C 13.53828060 15.26148963 14.43912770 1.4137770998924768 0.18149336377491512 -0.5955896139480974
C 14.47847041 15.31765238 13.30537569 -0.6826802586155244 -0.16434425806452596 0.6755112528551734
C 10.03336673 14.79428542 13.64605861 -1.7620271753565093 0.33055938163001847 -3.211996202579605
C 9.37955909 13.55892031 13.96549777 2.429324385884574 -1.8491880016423543 1.089894655515695
C 10.31530986 13.00293530 15.03630538 -2.7096559251771404 1.5998505858859189 1.0531607617470806
C 11.20623180 14.02054266 15.47530939 1.5022680935172972 -0.7201701079149921 -1.1220913572245745
C 11.11404565 15.08407422 14.50619673 0.7914622834728546 0.9148938955005071 0.23988604818736986
C 10.06873797 10.77133014 14.25497152 -0.3570301974309464 0.2368178800220152 0.8846618178560526
C 11.04559293 9.73918787 14.08782178 0.32319131230279874 -0.900444154583454 -1.5691695854829177
C 12.17188238 9.95494491 14.93826088 -0.7906636276568937 2.425155569378583 1.6640038221294036
C 11.80335385 11.22847364 15.68678074 2.256774142685968 -1.4276829295075015 0.23950959600563435
C 10.55732551 11.69228617 15.31445718 -2.2259981485514078 -1.2182522692809161 -2.723729713034484
C 13.68613542 9.31415351 13.21361462 2.247958867729153 -0.9243174902563013 0.28977699314535244
C 14.98309433 9.82877465 12.75017699 -1.4068709253888507 2.0267796779687757 -0.7528695025825844
C 15.37339360 10.86520549 13.77980333 0.7316012710085531 -2.1436398043434726 -1.9005605823810743
C 14.49557864 10.70283227 14.87048329 -0.31871888408586196 2.2107429820245907 1.151062090454261
C 13.48736025 9.74931852 14.56096586 -1.4530306513465425 -0.1040740097410457 -0.4578900932413608
C 13.94677932 9.87401402 10.44325582 0.4668724474954148 1.7758859537488885 1.2346905130991233
C 13.79699864 11.07777965 9.61995682 -2.44811582348156 -2.0750860303289214 -2.0120277117782313
C 14.84016157 11.99053557 9.84842228 -0.8929073884409287 0.5773633750104836 0.5461326579839395
C 15.60903467 11.40926622 10.96446017 -0.2918411536580329 2.171482312184497 -0.6009379303027657
C 15.02579757 10.20421946 11.37103887 -0.2044689484774818 -2.23330278767543 1.2010234706295502
C 14.44424833 13.34840032 9.81059443 1.4159442464968146 -1.087914164153664 -1.6262628913535548
C 13.20289248 13.80964975 9.23663751 0.32780618835192643 -1.0871408884651215 1.9694734486539698
C 12.84058951 14.90875114 10.10748906 0.7775194944865309 0.17822838866441906 -2.2573608660360773
C 13.87241904 15.17958299 10.99079348 1.4272048225458525 2.579168780768164 1.1345999372501319
C 14.90347798 14.26718209 10.79223197 1.3708498906783997 -1.987344345733933 0.7882649118062335
C 11.58522599 15.16490617 10.44813324 -2.7459215684616516 0.9508660550214102 1.1780789172665518
C 10.55324942 14.20504096 10.13104406 0.9330769109935017 0.03633577662139985 -0.2660261492131864
C 9.67417473 14.22104147 11.24537123 -2.1497759048538625 -1.959168552867352 -0.047233620641444214
C 10.06224512 15.13593506 12.24105322 1.7103619349528132 0.8880325816002952 2.0556716813748337
C 11.26192704 15.78038005 11.74697504 1.6444935706803054 -0.2413114497787834 0.04743835633922158
C 9.01909276 13.02903545 11.59042486 1.0429707643461825 -2.8262126618295227 0.353737790923534
C 9.39968797 11.70739512 10.90879134 -0.2635534646876432 3.321535635028566 -0.28753227539384724
C 9.54158108 10.71399090 11.90413232 0.7707677466843 -1.9342870710832676 -1.249639587345644
C 9.27992194 11.20808489 13.20664170 -0.03498422390859162 1.2156710233004593 -0.5055458566910104
C 8.95602097 12.64119596 12.98891287 0.4762641065120936 0.9654429387610854 1.1156894079888728
C 10.51081734 9.71586165 11.66560130 1.2355238989034334 0.040966406970430046 0.90740333371317
C 11.46747511 9.80308297 10.56713977 -0.675244750999896 0.2992559137504436 -0.3415469037310186
C 12.80946134 9.36834464 11.02668590 -2.543261398131061 0.03756181124173667 -2.347861618284939
C 12.65569932 9.01141427 12.35969793 -0.3035981886335698 -0.2874036383335482 1.7358501319183157
C 11.28115582 9.21807774 12.80419780 -0.25119738322532514 0.6926833366683268 -0.28735234892700984
C 11.29600936 10.82138267 9.61320667 0.44617129331563526 -2.2974370476682027 1.5067584267401464
C 10.26466012 11.79467052 9.81300532 0.28467506372131063 -0.67238690587858 0.6015764171502991
C 10.91961315 13.01359045 9.48703447 -2.5731022087511115 2.72891328823853 0.22897949525792125
C 12.23705292 12.83099841 9.05075159 0.35381798668618614 -0.46344451019711325 -1.101055417809379
C 12.47863549 11.42347653 9.11717941 3.22216609461802 0.8749743394788666 0.6660338223379557
60
energy=-88.35959508084 config_type=nep3xyz Lattice="25.0 0.0 0.0 0.0 25.0 0.0 0.0 0.0 25.0" Properties=species:S:1:pos:R:3:force:R:3
C 12.77997653 12.18504934 15.94455939 -0.6852747312432206 0.7983763634402725 0.9554949307889055
C 14.12592541 11.87090485 15.61289346 1.1727895896639036 0.5595497661579552 -1.3086148437120646
C 14.82214829 13.10620206 15.17088423 -2.6631320797006968 -0.9202561869809096 0.822762583935641
C 13.78809575 14.13521008 15.25882351 -0.2262261860203664 -0.18521529757843821 1.4157813706848366
C 12.51423378 13.60973595 15.82350770 3.279486632815411 -0.343246218019952 -0.12076733701980455
C 16.01490832 12.17208167 11.96224329 -0.5442583567555964 -0.23762874480313118 -0.4811753800055767
C 15.84559581 13.58433549 11.78639487 -1.894229876375177 1.4918614787355584 0.10460828112602379
C 15.55500395 14.13869974 13.09951615 -0.9403723948550964 1.6621993071807721 0.22865657918885918
C 15.64539857 13.04945424 14.07120464 -0.4215460707391701 2.6160247415110867 -0.10642255597965189
C 15.85438463 11.87236903 13.36781091 0.7035195010589961 -2.9436162715758116 -0.22984822267328633
C 13.88065977 15.70487517 12.18481811 -0.40566680875722144 0.6748637976399675 -2.580009258270285
C 12.54447778 16.05428970 12.57271913 -1.3831647905092443 -0.6013604927241845 1.4690429081345662
C 12.41420738 15.69352976 14.00960401 0.9670663317461885 1.1256234990222374 -1.7940192368082604
C 13.71376121 15.17118927 14.37362428 -0.9864947820940746 0.3019101233757025 1.4062172765515648
C 14.59084326 15.26033217 13.29390766 3.6576032361141655 -3.564811069950245 -0.7842815613790898
C 10.15369497 15.02651888 13.56841277 -1.2869499405488583 -2.5350287203987785 1.6571295949509217
C 9.52648245 13.73338185 14.04182840 0.024694524744865262 0.8414722708348805 -1.2456894912244107
C 10.26663226 13.17001675 15.12637247 0.7973186019381489 1.1550049323956666 0.562094141381766
C 11.31488319 14.14466586 15.48274967 -1.549796008829462 -0.7877329525185126 -1.3052082763517734
C 11.22821484 15.24259461 14.51605978 0.401584856141141 -0.4437432155046628 -0.3588779582238483
C 9.93571307 10.93264061 14.31475340 0.32298366726749905 -0.37997850884182777 -2.218817525898599
C 10.89715974 9.90057719 14.02708525 0.21026388457697104 -1.5752945263142097 0.7005259962853928
C 12.03920618 10.11155887 14.84328784 -2.4289878443459663 1.2118008635403463 3.0611173144740795
C 11.76917247 11.30047835 15.70604489 0.5724642312109782 -1.1765853199816845 -1.6585082410066252
C 10.55878214 11.80542735 15.19486955 -1.6723830745260648 2.1003536774468228 1.9900097413760756
C 13.50842105 9.20049172 13.23985339 1.3525012466882183 -0.2789191306076024 0.6077008457548263
C 14.74376039 9.74602954 12.71362648 0.2147782016446454 -0.030906060309004574 2.7763824057971176
C 15.30056931 10.63484909 13.80361252 -0.25993869385101426 1.50696316076041 -2.179784065929439
C 14.34607916 10.71975654 14.87053068 0.35080438859277746 -1.3036861801992676 -0.2034464847639662
C 13.27969004 9.78195707 14.52150351 1.935527969271091 0.22430736839856252 -0.07120099008658876
C 13.70329464 9.81249356 10.50011658 0.1294309149660088 -2.0346437234393635 1.5084689880085589
C 13.62511790 10.88107677 9.57420641 1.8067371327482113 0.7017609470829672 1.0464195225581157
C 14.68784863 11.82626128 9.95864187 0.3128294713971189 -0.704135335729474 -1.3293142157926088
C 15.45773132 11.30991870 11.02109252 0.3369210262539342 -1.072410945105975 0.6182408041342335
C 14.89452676 9.99357800 11.39750046 -1.18328017354654 1.8663085044147525 -1.9051961009291514
C 14.57240323 13.17692836 9.75461067 -2.0538273200233235 0.560807507727603 -0.40644105831544397
C 13.24628981 13.67918427 9.35579553 0.6888773639598076 -1.5025875199199756 -1.7487865737916435
C 12.98092679 14.89370759 9.96240025 1.4733315832888998 2.425309456481134 2.594003562070242
C 14.10848531 15.19912006 10.89944886 0.17209951216917785 -1.4101453043558903 -0.7163697816500932
C 15.05205503 14.09933800 10.69954988 1.5494057145408762 0.37306079169874795 2.1427059395103627
C 11.74555768 15.28381782 10.39200832 -3.2925894935068802 -1.7267188708478782 0.21611520371224216
C 10.60418239 14.31730578 10.10347657 1.1274532095514136 1.3907432227001928 1.2727445216369038
C 9.68565125 14.35155718 11.28510009 0.5568538462500586 -2.2412309973315465 -3.6743116787347256
C 10.22453130 15.22457613 12.19110920 1.4748625831160314 2.378484803810822 3.231481224246712
C 11.45819983 15.81808778 11.73725827 1.1993260201782254 -0.17504244909354777 -1.6796378761622217
C 9.14289231 13.13670207 11.64995533 -1.2354049831567395 1.0588988754627717 1.7587344719868223
C 9.36976416 11.90767564 10.96720548 1.1471104694441263 -0.05818227978639189 -0.908337615090426
C 9.48424467 10.87189539 11.93637151 0.4076419177636237 -0.6258896767598043 0.0402839823546379
C 9.28384053 11.50538537 13.22575683 -0.7722049932915765 -2.5091217404374384 0.14696186051748258
C 8.96172523 12.87021515 13.10078924 1.2661500204138998 0.38206008170381683 -1.3224094767499917
C 10.40099014 9.80901074 11.74022676 -0.5005087616213824 0.07401602357688271 -0.21178368430029273
C 11.30484137 9.77511660 10.62258371 -0.7391212693725242 0.30090483632981513 -1.2930910798914763
C 12.54823980 9.12607664 10.98255218 0.7193065447322536 2.0690752091562747 0.9150363373564437
C 12.46084239 8.85409486 12.46433386 -1.6739975546372854 0.4031990021908147 -2.7383468512397795
C 11.08346974 9.20210589 12.84584690 0.40140255684461096 1.2583176283105522 0.3624339543533076
C 11.21354094 10.80467922 9.64171525 -0.6129612126355813 -0.18541838078229433 1.984705756721513
C 10.25713153 11.89197307 9.89437719 0.6979215965140171 -0.08241102066394823 -0.6950841111020375
C 10.91222310 13.12600432 9.47463832 -1.4345845224352998 -0.11594440991185538 0.14281501986207332
C 12.22298137 12.81206152 9.02349003 0.6966148004219409 0.3300492620273954 0.47353795086918793
C 12.43200242 11.39992925 9.19398941 -1.286770897357874 -0.08959293889017143 -0.9365411278586129
60
energy=-87.867775766965 config_type=nep3xyz Lattice="25.0 0.0 0.0 0.0 25.0 0.0 0.0 0.0 25.0" Properties=species:S:1:pos:R:3:force:R:3
C 12.83924988 12.20632289 16.04151143 -3.3795461061762637 -0.10122580080369588 -0.5200444151044994
C 14.09210759 11.70425051 15.57884205 0.20053144625094801 1.8548282372040124 -0.6046496634703923
C 14.80844224 12.89719876 15.05726445 -0.5597465452881344 -0.544989091485583 1.679190799080417
C 13.98044522 14.09617150 15.22380721 0.8547110316773174 -1.6694829673374774 0.4012351987333135
C 12.73159681 13.64026972 15.84502710 1.6888589708234834 0.8615753022757523 -1.1893799200870048
C 15.93083645 11.77993527 11.89366473 0.2930507404639151 -0.5243356798072679 0.013484464463405033
C 15.92948245 13.16322364 11.67940683 -0.6650868631312046 2.8803122052521286 2.330289186119681
C 15.70195806 13.82139920 13.02659351 1.0545402649615496 -0.3348039741832036 -1.279448011054322
C 15.70863992 12.77343978 14.04334419 -0.28510564821873124 0.6639846440176776 -2.2470511999352403
C 15.79364518 11.54169253 13.28625605 -0.4688568654583913 -1.63693948459231 1.9746810863962392
C 14.25087427 15.48828117 12.03226387 0.5374300011894956 0.798174712015799 -1.375663102576643
C 12.99312493 15.93035158 12.49383402 -2.2946705230985556 1.4306967045999321 -2.5524117307433523
C 12.83371520 15.75025450 13.85661180 0.8083254571542697 -0.6395376808407824 1.9065942259284199
C 14.06568139 15.08912381 14.27157323 -0.8348059050577981 0.15232968474193534 0.8782191832814089
C 14.93466316 14.98390219 13.12549732 1.2922506056285865 -2.2091029197643617 2.060051443318141
C 10.46406212 15.27980354 13.60407885 -0.13072811488767516 -0.6846783942524592 -1.0050996529155163
C 9.70888812 14.10822784 14.00549143 -0.5567490773434374 -0.4842987742226346 0.8283262588469614
C 10.35025022 13.53717571 15.19451648 1.7014205390697885 -0.1958875502347315 -1.3613253427403649
C 11.62408533 14.29197608 15.34691878 -2.5909856931400084 -0.7973891415543027 1.6060620430194268
C 11.61601927 15.41508322 14.44824231 0.8519256511221106 -0.7515199215433581 -0.5244441866583024
C 9.71984993 11.22074599 14.37701204 1.3574515863403893 2.1250007298606395 1.3588576565933461
C 10.58210436 10.11975686 14.16912050 0.4963740888833295 -2.4515727063053094 -0.22334821407941152
C 11.70896385 10.24569571 15.00679685 1.156147672302448 -0.3050548840479117 0.41762559914791614
C 11.61778067 11.49000473 15.77997253 2.392079176976479 -0.2419050435839903 -0.6845817426230651
C 10.46177837 12.13923306 15.28747938 -1.6944768983473122 0.3972469596853786 0.6608510171736345
C 13.06666324 9.04591946 13.38057316 1.2137591117359268 -0.029429097064476092 -4.073044251546912
C 14.37368964 9.52831323 12.80488969 -0.03293807979949273 -0.18165993396404648 3.5484597834237914
C 15.05675780 10.43133296 13.74569601 -0.591333150629954 -0.31765920871051173 -0.3057740573777648
C 14.16468410 10.52885475 14.86996938 -0.47557608314506944 -0.7157485925319406 -0.6127328465865018
C 12.93809581 9.72094362 14.54468561 -0.10585715673267711 2.4944781249225216 4.292067579706723
C 13.37701758 9.66798948 10.62524624 -0.8274508909782032 -1.290031403664165 0.6665452714509451
C 13.42930188 10.63343561 9.62543176 -0.3849079269005145 3.417334463749694 -0.9717368569930367
C 14.51347336 11.50384864 9.92968109 2.250179580055994 1.2061275621710792 -0.7551553779685157
C 15.31243459 10.93521768 11.01002767 -1.7109509938452263 0.06518466995709268 -0.11149172517017084
C 14.49539885 9.85638537 11.54561337 0.07315121593681868 -0.44211392855248277 -4.4988594972561655
C 14.55634783 12.92697371 9.67540998 0.6092941470372271 -1.9554988443299361 1.070702013584788
C 13.38593359 13.60033563 9.26120265 -1.2781138042811335 -3.7296493736990066 -2.0679823875340033
C 13.32626901 14.87203460 9.81803402 0.1528612338012887 1.1385728809382072 2.8722525800377894
C 14.46319861 14.97338383 10.77773656 -0.3560581327838992 -0.5688007308288099 -1.1164417149205708
C 15.25920196 13.76402811 10.64465481 -0.793960547218507 -0.12129420290731585 -1.3767312752856427
C 12.11049879 15.28036007 10.32824251 -3.345003888598919 -1.3341628772729335 0.11293288080930167
C 10.86636677 14.42176062 10.13488861 1.2386582202603946 1.206862960237908 0.02256102750853297
C 9.97099133 14.60602192 11.26749639 0.44137580633921963 -0.8897202361188496 -1.35771667835345
C 10.61498484 15.45649534 12.23315192 0.13576346041975662 0.2903905614455552 -0.7474252995150126
C 11.87950280 15.82235923 11.64128410 1.5417641158909907 0.7544341343665236 0.8936581766384858
C 9.20846051 13.49929579 11.61603661 -0.42439466054145697 2.0467386110957455 4.294503218191046
C 9.34434529 12.27526320 11.03055340 0.4697482102450684 -3.1010754220855317 -0.6836503786421306
C 9.32803695 11.18176956 12.04900972 -1.928041242861347 2.211973610863235 -0.7936273819345225
C 9.10675044 11.83712480 13.33128029 -0.24846340579213175 -0.36857369738624324 -1.8051142184460638
C 9.03226868 13.27260701 13.12259454 0.9627983880540267 0.1782673580088325 -1.3118138045624215
C 9.97979605 10.00096682 11.88221894 2.245337768525243 -0.6903027035331153 -1.3790851872275398
C 10.91090270 9.88167094 10.73777457 -0.36950030863522954 1.8113893284863531 -2.537718293471152
C 12.13655095 9.22781438 11.07590543 -0.21748166195306468 -0.1644882366717916 1.2966420300288968
C 11.97762169 8.91535449 12.47449974 0.8082783379230869 0.1120717531486132 2.165636066396385
C 10.70689051 9.37808757 12.96077599 -0.786713534742856 1.585817336261527 0.7494689983875176
C 10.98380350 10.90801712 9.75492362 0.011372174691149976 0.49968181825723196 0.9793095547807266
C 10.18375379 12.13981824 9.94177441 0.01753525234374999 -2.8583461117293436 0.1036478399605578
C 10.97263584 13.18564897 9.50874394 0.42960695438604135 2.494312483506667 -0.7743442035664615
C 12.24897385 12.72304835 9.00073522 0.9283791850825458 3.8857130698473856 0.639553565359697
C 12.28576984 11.36997238 9.20486459 -0.8752810959096534 -4.22932317018067 1.0253825376527692
60
energy=-87.25523456555 config_type=nep3xyz Lattice="25.0 0.0 0.0 0.0 25.0 0.0 0.0 0.0 25.0" Properties=species:S:1:pos:R:3:force:R:3
C 12.83898956 12.27005617 16.08366755 -0.29827582193822266 1.0318671855292871 -1.4040998441379908
C 14.00958470 11.53682927 15.53834349 -2.1356967952949426 1.814366597642196 2.130516956105182
C 14.92113201 12.50120977 15.05317047 1.0482049942884863 2.197421114469031 -0.9036498804143522
C 14.37917363 13.86936486 15.12596245 1.0377045617528944 -2.1230263458042433 1.1507767459939136