   61
Geometry Step: 3
    C     12.87912958     11.33315916     15.80604984      4.00065562
    C     13.72688907     12.50000000     15.80604984      4.00065557
    C     12.87912958     13.66684084     15.80604984      4.00065561
    C     11.50742588     13.22114732     15.80604984      4.00065569
    C     11.50742588     11.77885269     15.80604984      4.00065569
    C     14.23678379     15.51161591     13.09066994      4.00065827
    C     12.86509586     15.95730439     13.09066994      4.00065881
    C     12.25163761     15.51150363     14.31749580      4.00065851
    C     13.24420478     14.79042677     15.07586045      4.00067516
    C     14.47104679     14.79037385     14.31749577      4.00065808
    C     10.17247878     15.08242002     13.09066993      4.00065807
    C      9.32472899     13.91559259     13.09066991      4.00065843
    C      9.55914165     13.19439915     14.31749577      4.00065852
    C     10.55164662     13.91556161     15.07586045      4.00067503
    C     10.93081196     15.08234135     14.31749576      4.00065814
    C      9.32472898     11.08440741     13.09066991      4.00065843
    C     10.17247878      9.91757998     13.09066993      4.00065808
    C     10.93081196      9.91765865     14.31749575      4.00065814
    C     10.55164662     11.08443839     15.07586044      4.00067503
    C      9.55914165     11.80560086     14.31749577      4.00065851
    C     12.86509585      9.04269561     13.09066994      4.00065881
    C     14.23678378      9.48838409     13.09066993      4.00065827
    C     14.47104679     10.20962615     14.31749577      4.00065808
    C     13.24420478     10.20957322     15.07586045      4.00067516
    C     12.25163761      9.48849637     14.31749580      4.00065851
    C     15.90091269     11.77886096     13.09066995      4.00065868
    C     15.90091269     13.22113903     13.09066995      4.00065868
    C     15.28736194     13.66681245     14.31749580      4.00065824
    C     14.90829724     12.50000000     15.07586046      4.00067518
    C     15.28736193     11.33318755     14.31749580      4.00065824
    C     15.44093742     13.19440884     10.68245965      4.00066357
    C     14.44833480     13.91554811      9.92423243      4.00066680
    C     14.06922169     15.08241355     10.68245966      4.00066327
    C     14.82750531     15.08243215     11.90929969      4.00066145
    C     15.67527763     13.91557370     11.90929970      4.00066176
    C     12.74837760     15.51158182     10.68245962      4.00066351
    C     11.75580232     14.79040493      9.92423242      4.00066688
    C     10.52889495     14.79042816     10.68245965      4.00066321
    C     10.76319976     15.51160452     11.90929968      4.00066167
    C     12.13492416     15.95730485     11.90929968      4.00066213
    C      9.71256840     13.66685108     10.68245962      4.00066328
    C     10.09172573     12.50000000      9.92423241      4.00066686
    C      9.71256840     11.33314892     10.68245962      4.00066329
    C      9.09909306     11.77884180     11.90929967      4.00066205
    C      9.09909306     13.22115821     11.90929966      4.00066204
    C     10.52889494     10.20957184     10.68245964      4.00066320
    C     11.75580232     10.20959507      9.92423242      4.00066687
    C     12.74837760      9.48841818     10.68245962      4.00066351
    C     12.13492416      9.04269515     11.90929967      4.00066213
    C     10.76319976      9.48839548     11.90929969      4.00066167
    C     14.06922169      9.91758645     10.68245966      4.00066327
    C     14.44833480     11.08445189      9.92423242      4.00066680
    C     15.44093741     11.80559116     10.68245965      4.00066356
    C     15.67527763     11.08442630     11.90929970      4.00066175
    C     14.82750530      9.91756785     11.90929969      4.00066145
    C     13.49256604     11.77885856      9.19411060      4.00066380
    C     12.12087352     11.33316865      9.19411060      4.00066381
    C     11.27312092     12.50000000      9.19411061      4.00066381
    C     12.12087352     13.66683135      9.19411061      4.00066380
    C     13.49256604     13.22114144      9.19411060      4.00066379
   He     12.49999991     12.49999999     12.49948305      7.96027375
