  2.5615522e-01   1.5620921e-05
  4.5122555e-01   1.1086195e-03
 -3.8650706e-01   1.5017207e-05
  4.5027871e-02   1.1624661e-05
 -8.9850175e-01   4.2744880e-08
 -8.9807823e-02   8.3885118e-07
  4.3524294e-03   7.8241929e-04
 -1.1176968e-01   1.5818592e-05
  9.4507295e-01   1.7225294e-03
 -4.3807417e-02   3.1848864e-05
  1.2587321e-01   1.7303408e-05
  7.1558513e-02   1.0539007e-03
  1.0885590e+00   1.0163792e-03
 -1.5993831e-01   2.9847743e-07
 -2.0272873e-01   1.2498460e-05
 -3.0654619e-02   7.4812979e-06
  3.2149112e-01   2.0381985e-06
 -1.5137379e-01   6.7648239e-04
  7.5382687e-02   1.1978101e-03
 -5.6891255e-03   7.1293477e-04
 -2.9618958e-01   4.4553305e-04
  1.2065071e+00   1.3829891e-03
  1.6256487e+00   8.3568129e-06
  2.4769868e-01   1.6275255e-04
  2.8894788e-01   6.5680251e-05
  2.4938184e-01   3.6789416e-04
 -1.0445681e-01   4.3567656e-05
  2.3289831e-01   4.8071088e-05
 -3.0916867e-01   2.2161222e-04
  8.4143025e-01   1.8849833e-03
 -2.4522054e+00   1.2692582e-03
  7.2269893e-01   1.3560279e-04
 -1.2997408e-02   3.0066626e-06
 -1.7369236e-01   8.1148472e-05
  1.9861318e-01   5.4011046e-04
 -5.7602424e-02   9.3128288e-04
  1.4785545e-01   1.5369174e-02
 -1.7106844e-02   2.4888592e-04
 -3.3284444e-01   2.3030427e-04
 -2.4962094e-01   1.0778186e-04
 -2.4300046e-01   8.4533003e-06
  9.0125209e-01   7.5799282e-05
  1.3283800e-01   1.5894452e-04
  4.6800994e-03   2.5392429e-04
  2.9303506e-01   3.5442195e-06
  8.0769278e-02   9.0504717e-04
 -1.5421930e-01   1.8620251e-04
 -3.0847993e+00   2.8230893e-06
 -5.0558548e+00   3.7325761e-05
  1.4281402e+00   1.5471255e-06
 -5.8405858e-01   2.5372114e-05
 -1.4910171e+00   2.3486284e-06
 -4.2052981e-01   4.4638867e-08
  2.6007634e-01   1.2359026e-06
  1.0338027e+00   7.3417986e-04
 -5.7721591e-01   5.3102145e-04
 -7.0987386e-01   9.9184570e-07
 -1.3403410e+00   3.3320500e-08
 -2.9298379e+00   3.3440727e-03
  1.0066255e-01   1.0714921e-07
  1.2602972e+00   9.8409910e-05
 -1.6826938e+00   1.5421379e-05
 -3.2389665e-01   1.6917996e-04
 -1.3292974e-01   2.7315959e-03
  1.7452568e+00   5.0304297e-06
 -6.1359301e+00   7.7774841e-04
  1.7805072e+00   5.1217724e-04
  6.6845733e-01   4.1213148e-06
  9.7120609e-03   1.4304992e-05
 -3.1710005e-01   5.5262944e-06
  2.6690075e+00   7.5918405e-07
 -8.4331639e-02   8.3766741e-07
 -2.5672409e-01   1.7140311e-06
  2.2853546e+00   1.1241331e-04
  4.8009336e-01   9.3427458e-05
 -5.7382941e-02   5.3330627e-08
 -1.4259167e+00   7.2935357e-04
  1.3457891e+00   1.2754381e-09
 -1.9301265e-01   2.7717231e-10
 -1.1887749e-01   1.0257563e-05
 -2.9872086e-02   4.7560977e-08
 -1.3573837e+00   2.7442098e-04
 -4.8977416e-02   3.5610872e-05
  1.3440040e-01   4.4626533e-04
 -6.8744349e-01   1.9168850e-05
  2.4721954e-02   4.2935979e-04
  4.8720571e-03   4.9345098e-03
  1.6533348e-01   1.3893911e-05
  3.3027641e-02   2.6829488e-04
  1.9751109e-02   1.5953605e-05
  8.1434166e-03   1.0293318e-06
  3.9025445e-02   1.9274677e-04
 -9.0650849e-02   1.7219567e-04
 -9.8482698e-02   1.6644602e-03
 -1.0562888e+00   1.2186920e-06
  5.4223263e-01   7.0246287e-08
 -9.1130298e-01   2.7132824e-05
  1.0334184e+00   2.5805589e-04
 -1.7891161e+00   2.2243117e-05
 -6.1430597e-01   5.6338877e-06
  2.6635733e-01   1.0472903e-03
 -1.4536916e-01   6.0447684e-04
  8.7084658e-02   5.7164155e-04
 -1.6729768e-01   2.3132074e-08
  1.0468646e+00   1.2301982e-06
  5.7558507e-01   9.4453635e-06
 -3.9153489e-01   1.5360663e-03
  1.1707627e-01   2.6807236e-04
  4.6324790e-02   5.1670116e-07
  1.2243137e-01   1.5149504e-04
  2.0805733e-01   5.6872219e-03
  1.2873109e-01   1.1111544e-05
  1.9217739e-01   3.2171487e-05
  1.4304717e-01   3.5114234e-09
 -4.1803870e-01   1.4292875e-10
  1.2678899e-01   9.2725870e-08
 -1.7242381e-01   1.8593320e-05
  1.4911026e+00   3.4515590e-05
  1.6665053e+00   3.7422794e-08
 -1.6130364e-02   1.9579443e-04
 -7.6553148e-01   6.6674831e-05
  6.4771488e-02   3.5538414e-04
 -6.5722370e-01   1.9705827e-04
  2.2976918e+00   1.0818628e-08
 -2.3780198e-01   2.0401243e-08
  1.0923620e+00   3.1073618e-04
  3.2835677e-01   8.9763751e-04
 -3.2524876e-02   1.4297244e-04
  1.2974219e-01   3.5464956e-04
  4.4448745e-01   1.2244202e-02
  1.4318130e+00   2.2631703e-04
 -2.9670089e-01   2.0880878e-03
 -2.7585709e-01   5.2250534e-06
 -9.9977501e-02   4.7982560e-04
 -8.5173264e-02   1.4109307e-03
 -9.9248514e-02   1.5047048e-02
  8.4911942e-02   1.8034525e-02
  5.6257242e-01   1.3827156e-02
 -4.8895907e-01   3.8346855e-03
  1.3565628e-01   1.7589813e-02
  3.2561132e-01   1.4743383e-02
  5.9510690e-01   2.0946103e-05
  1.1631827e+00   1.6208359e-08
  1.0841808e-02   2.2350579e-07
 -2.0153299e-01   9.2677146e-05
  8.7798536e-02   4.9103090e-07
 -9.9488176e-02   1.6391785e-05
  7.8037865e-02   6.4428294e-09
 -1.4650440e+00   1.0064511e-03
  1.1190445e+00   4.8881127e-05
  9.2517994e-02   9.0737842e-05
 -3.5843719e-02   1.2228766e-04
 -1.6700707e-01   3.7209579e-04
 -7.4689907e-01   2.6576951e-04
 -7.1187377e-01   1.1253476e-04
 -3.2555632e-02   4.5184864e-04
  8.7981898e-01   2.9573082e-03
  1.1276619e+00   7.2094503e-05
 -4.3786106e-01   2.4591018e-03
  4.0109739e-01   2.8477760e-04
  8.7072454e-02   1.6582791e-04
 -3.3053476e-01   7.4360491e-05
  6.4659137e-01   7.2922774e-07
  1.2002977e+00   1.0124132e-03
 -6.0523671e-01   1.2428980e-06
  1.1337034e-01   4.9775306e-05
  6.6456467e-01   8.8721851e-04
 -4.4268024e-01   1.9707746e-04
 -1.7473617e+00   2.0598971e-05
  6.0398620e-01   1.3183530e-05
  7.0374836e-03   4.2399007e-04
 -2.0707665e-01   1.4470879e-04
  2.0908889e-01   2.3884668e-05
  6.0970503e-01   2.3047696e-05
  1.0355509e-01   3.9999266e-03
 -2.9617879e+00   9.4725058e-04
  8.5563734e-02   7.3854908e-06
 -1.8975917e-01   5.1207765e-04
 -8.2928205e-01   9.1108335e-03
 -7.3658353e-01   5.0832797e-03
  4.5115525e-01   1.5654395e-07
  3.2295436e-01   2.8150250e-08
  3.2759488e-01   1.7003883e-02
  2.1271701e-01   4.4670865e-05
 -6.7590858e-04   5.1338307e-04
  7.8397065e-01   4.2490647e-03
 -5.7761449e-02   1.6865290e-05
  5.9780198e-01   6.2256055e-07
 -3.1784114e-01   3.0293222e-08
 -1.0197591e+00   8.5157744e-08
  8.0350146e-02   7.8056715e-08
 -5.1300579e-01   3.7739127e-07
 -1.6886584e+00   8.3311384e-08
 -8.3879441e-01   1.0676109e-06
  4.5076981e-01   2.3757908e-05
  3.0516057e+00   7.3468528e-04
  1.5978161e+00   2.6884754e-05
  2.4257243e+00   7.0252419e-08
 -1.4998225e+00   4.9819465e-04
  3.2596867e+00   9.0074859e-04
  1.3263144e+00   9.2472474e-04
  6.0283530e-01   1.9871755e-05
  1.8326131e+00   2.8806232e-04
  4.2254257e-01   1.8347752e-06
  1.4196399e-01   8.7749555e-05
  5.3953023e+00   1.6717806e-05
  2.7053609e+00   1.2554317e-03
 -1.9274096e+00   1.8093875e-06
  8.3030868e-01   5.1761056e-08
  6.2868077e-01   3.4982694e-08
  9.1705859e-02   3.9614704e-05
 -5.7481289e-01   6.0928955e-06
 -1.0703466e+00   7.4013980e-05
 -3.4135833e-01   1.0048822e-05
  2.6096191e+00   8.1004437e-05
  2.0828246e-01   6.6459068e-04
  2.2192108e-02   8.5860891e-05
  8.2905543e-01   1.2945546e-05
 -3.0268736e+00   1.5416486e-05
 -2.2478571e+00   5.6226276e-05
 -2.0249860e+00   1.2085441e-07
 -1.0947280e+01   4.8341872e-03
  1.8438667e+00   2.2118767e-05
  1.5665349e+00   2.7120672e-04
 -3.0782285e+00   6.0306043e-05
 -4.6917186e+00   7.4017822e-05
  8.0004114e-01   4.1860060e-04
 -1.8723862e-01   1.7016120e-03
  1.5592480e-01   1.2044922e-03
  2.6888654e+00   6.1400450e-04
 -4.5221541e-02   1.4599626e-06
  1.9430530e-01   8.0170057e-04
 -3.7189314e-01   2.4103961e-06
 -6.6537172e-01   3.9694444e-03
  4.4175261e-01   3.0162721e-05
  5.3525501e-01   2.4960684e-08
 -2.0322315e-01   5.7952505e-09
  3.4002814e-01   3.4246941e-08
 -2.8932831e-01   1.3059951e-08
  6.4330119e-01   1.7250430e-06
  3.2844134e-02   2.4273440e-05
 -2.0580668e+00   5.5273090e-06
 -9.6824831e-01   3.1841999e-05
  1.9621395e-02   8.0303915e-05
  8.8528466e-01   3.8440480e-06
 -2.3895617e+00   7.4702946e-09
 -3.9659569e-01   7.1200695e-05
  4.2050546e-01   8.3011728e-06
 -9.9670738e-01   1.5048708e-07
 -3.1163481e-01   1.7521497e-04
  1.5159851e+00   6.0690318e-06
 -4.7205961e-01   6.0137737e-08
 -4.3882947e+00   1.6244996e-05
 -2.1083574e+00   5.9257450e-06
 -5.7476425e-01   2.1251582e-05
 -1.3037392e-01   1.8649138e-05
  2.3947568e+00   1.3204015e-06
 -5.9517324e-01   2.3619863e-05
  3.3017880e-01   4.3302688e-08
 -1.7528199e+00   7.0561495e-05
  8.4097165e-01   5.3117761e-05
 -3.7637329e-01   8.9745896e-08
 -1.5120093e+00   6.1322891e-05
 -1.4457502e+00   4.1178259e-06
 -4.6492755e-02   1.8378876e-05
 -9.7104587e-02   9.7149477e-06
  2.5335727e+00   1.1802094e-06
  1.9879969e+00   5.4408583e-06
  1.3649167e+00   1.3376564e-06
 -1.1286398e+00   1.0905526e-05
  5.0144279e-01   6.1058690e-06
 -7.1915185e-01   1.2269160e-06
 -2.0502307e+00   7.1508587e-08
 -6.2968838e-01   5.9416085e-05
  3.5673442e+00   4.7782065e-05
  1.2924380e+00   6.5583072e-04
  1.0268724e+00   3.9443173e-04
 -2.2438228e-01   9.5235606e-05
 -1.0222409e+00   8.4850815e-04
 -3.7660611e-01   6.6914298e-03
 -2.1868968e+00   5.8595479e-06
 -1.5259780e-01   6.3892876e-05
 -5.3646672e-01   5.1129416e-07
 -2.4920528e-01   7.1315378e-07
  2.2498155e-01   8.1225805e-04
  3.4072246e-02   3.5941956e-04
 -8.4558770e-02   2.1934535e-03
  1.2220269e-01   2.3765873e-02
 -4.8016023e-02   2.0985244e-02
  9.8216258e-02   1.2309123e-06
  3.0191062e-02   2.5269190e-02
  1.9986711e-02   2.1403478e-04
 -4.3631616e-01   1.2286883e-05
  3.5152027e-01   1.2677311e-02
 -4.8936982e-02   8.8039489e-04
  6.9603577e-02   2.0550166e-03
  2.3912627e-02   3.1522149e-03
  6.9879115e-01   5.3506399e-05
  5.5158520e-03   2.2547170e-04
  7.6061726e-02   1.7893679e-02
 -6.5054014e-02   2.4559212e-04
 -1.0042667e-01   2.3219015e-06
  1.5089111e+00   4.8678495e-10
 -1.8263409e-01   1.8839859e-03
  4.9857405e-01   1.4029190e-06
 -3.0947404e-03   8.4014433e-03
  9.2616104e-02   8.3767838e-04
 -1.7143482e-01   3.3773750e-04
 -1.3583100e-01   9.0224756e-05
 -8.1381315e-01   9.8000291e-06
 -6.8039276e-02   1.4177765e-02
 -1.7028682e-01   4.9415671e-06
  2.1282099e-01   1.1611017e-03
 -4.2277880e-02   3.5353968e-04
  9.6722424e-04   1.8054642e-02
  1.1432108e+00   7.1270765e-06
 -1.6366418e-02   9.8458072e-04
 -5.1939659e-02   1.1156988e-03
 -1.5856563e-01   8.5056563e-06
  2.5944065e-02   2.6322601e-03
 -8.7245069e-02   9.5110136e-04
 -7.1320035e-02   7.8447601e-06
 -2.7548745e-01   2.8772047e-04
  9.9131919e-02   2.9390357e-03
 -6.6967420e-02   3.1200162e-04
  1.7838120e-01   7.5648671e-08
 -3.9325902e-01   6.4205597e-05
  1.6382328e-01   7.1673850e-03
  2.8906772e-01   1.4761227e-05
 -5.5620484e-02   1.8964115e-09
  3.1146923e-01   2.0180082e-08
 -2.5345343e-01   5.4834481e-06
  1.0359670e+00   3.3771303e-07
  2.6133272e-01   2.8807170e-05
  1.0006376e-01   1.8938717e-06
 -2.8563530e+00   7.2126340e-06
 -7.0211339e-01   4.9604008e-05
 -4.8945266e-01   3.9363247e-05
  7.6198328e-01   3.6509521e-06
  1.4305000e+00   4.0704631e-06
 -1.0231726e+00   7.5956329e-08
 -1.3729553e-01   5.4172233e-05
  3.7295881e-01   5.4338111e-06
 -2.1893215e+00   1.3546007e-06
  1.0612136e+00   4.4353153e-05
  1.0502032e+00   5.2442965e-07
  9.2798448e-01   1.6934613e-06
 -1.6370664e+00   4.0489565e-05
 -1.3273466e+00   2.4858544e-05
 -4.5787728e-01   2.7026641e-07
  6.9750166e-01   1.4017323e-04
  1.3146626e+00   9.0710200e-06
 -2.8434107e-01   5.2102962e-07
  1.4784348e+00   2.0182564e-05
  1.7127424e-01   2.8754798e-06
  3.6285330e-02   6.6395955e-07
 -4.9680505e-02   8.7641129e-06
  6.5446740e-01   5.8492933e-08
  4.0100980e-01   4.6102633e-07
 -1.0804523e+00   6.9888428e-09
 -4.1635790e-01   1.3397204e-07
  2.5334081e-01   5.0420567e-07
  5.3868097e-01   4.6976161e-06
  3.1015518e-01   5.3448605e-07
 -2.7844505e+00   1.3786921e-04
 -6.2614470e-04   4.6372684e-06
 -5.6449497e-01   1.0562807e-05
  4.4491403e-02   8.8607021e-07
 -1.6327416e+00   1.5992830e-03
  1.4646703e-01   8.6922245e-04
  2.4903231e+00   1.2096035e-06
 -2.2096400e+00   4.3884238e-06
 -2.0745631e-01   2.5506308e-06
  1.5606183e-01   7.9296416e-07
  2.1624343e-01   2.1284970e-04
 -3.9786705e-01   3.7983249e-04
 -2.2413699e-01   6.9926068e-07
  1.3102174e-01   1.1398937e-04
  1.6766353e-02   7.3525865e-05
  1.0852129e-01   3.5967300e-06
 -1.2533627e-02   6.8685017e-06
 -1.8790945e-01   1.0123962e-04
 -1.4927693e-01   8.7028864e-04
  2.2866182e+00   8.9054238e-06
  9.4342187e-02   2.6481572e-05
  2.7232713e-01   4.3185747e-07
 -3.0055088e-01   8.7038366e-08
  8.7566584e-01   9.4421726e-04
  2.7204791e-01   1.2749882e-05
  2.8677958e-01   2.1360140e-05
 -5.3183562e-01   4.8550148e-05
 -3.7585147e-02   2.0086802e-04
 -3.6705953e-01   6.4411317e-05
  6.3533819e-01   2.2661065e-06
 -1.8020089e+00   1.2036348e-03
  2.6804784e-02   1.2407858e-04
 -1.3376969e-01   2.0808981e-04
 -1.3359363e-01   6.7255023e-04
  1.5041517e-01   2.5959584e-04
 -2.3831712e-01   3.0445628e-04
  8.9906114e-01   1.5894308e-05
 -1.1111023e+00   1.9465567e-06
 -3.8678071e-01   3.8962920e-05
  1.5147950e-01   1.8510576e-05
 -1.4562726e-01   4.4128268e-05
  2.2187747e-01   1.0707346e-07
  7.2081941e-01   1.3878467e-07
 -6.4137173e-01   1.0016940e-05
 -2.2817748e+00   6.6719767e-05
  8.7429446e-01   4.1768025e-03
  5.4442710e-01   2.1480317e-03
  2.4190129e-01   6.0689985e-05
 -2.3512653e-01   1.1896386e-05
  5.7145351e-01   2.3465934e-03
 -1.0366292e-01   9.8762219e-05
  8.1939292e-01   4.8697475e-05
  1.9222440e-01   7.2374451e-04
  2.3114140e-01   7.2655799e-03
  1.6154635e-01   1.6764813e-03
 -2.9196751e-01   8.1083365e-04
  3.2001015e-02   8.6457096e-03
 -5.0175935e-02   9.4155073e-03
 -1.0229872e-01   7.8989910e-03
 -3.0277671e-02   1.0692018e-02
  9.2055369e-03   2.7828973e-03
  2.8668656e-03   8.8383146e-03
  6.0121235e-02   1.6297424e-06
  2.2918028e-01   2.8739928e-04
  2.4878471e-01   1.6757939e-04
  2.0675110e-02   4.0916535e-03
 -1.5747429e-01   3.8833157e-05
  2.1260330e-01   6.6932937e-04
  5.2873112e-02   3.8595966e-03
  3.5737216e-01   3.2075607e-06
  5.3774290e-02   2.2089759e-02
  3.8002968e-01   6.6767905e-05
 -1.9309361e-01   4.1005253e-03
 -9.7926155e-02   3.0476637e-02
 -5.2536607e-01   4.6589412e-04
 -2.0121495e-01   1.3809896e-06
 -1.4135894e+00   9.2860908e-05
 -7.4143879e-02   4.1227526e-04
  1.0216567e-01   5.3774624e-04
  2.9848367e-01   3.6799505e-02
  2.0702181e-02   3.3524726e-02
  1.9879881e-02   1.6859089e-04
 -8.9448792e-01   8.3407026e-04
 -3.0625796e-01   3.0339048e-03
 -5.7911336e-01   5.4006218e-06
 -4.0549141e-01   1.0265209e-04
 -5.8603120e-01   3.1480868e-04
 -1.4326106e-01   2.8199283e-04
 -2.5304914e-02   4.2031579e-02
  2.0310612e-01   1.1542538e-07
  1.1515795e-01   1.2163625e-03
 -4.1195759e-01   6.9962550e-07
  3.5010949e-01   7.1068393e-04
  3.3888423e-01   2.6189340e-09
  2.7494615e-01   2.0148145e-05
  1.3096736e-01   9.4015704e-04
 -5.7263190e-01   2.5219467e-07
 -6.5004192e-02   1.6619191e-02
 -5.0270134e-01   1.8793988e-05
 -5.8796102e-01   2.6663810e-03
  1.5454848e-01   1.2494052e-05
 -2.5614703e-01   1.0830393e-05
  1.2439665e-01   3.0497791e-02
  2.2960337e-01   1.4848693e-04
  2.7695835e-01   6.4964556e-06
  2.3869504e-01   2.2464412e-05
 -5.9201109e-01   3.7593869e-04
  1.5510602e+00   3.5874233e-05
  8.7416917e-02   2.6264371e-04
  5.1748548e-02   3.4970482e-05
 -1.4832277e+00   1.3834548e-09
  1.0704216e+00   4.5820490e-09
 -3.5467124e-01   7.1391893e-05
  6.9018030e-01   3.6455432e-08
  4.0982538e-01   2.6945761e-04
  5.6641501e-01   7.3617815e-07
  2.7714524e+00   2.8328260e-03
 -4.4405349e-02   4.1306470e-05
  5.2729040e-01   1.9724572e-05
  1.4982889e+00   4.5105224e-04
  1.2384494e-01   6.9296913e-04
  1.0748764e+00   7.2786948e-05
  4.3376129e-02   4.1890969e-05
  5.5959946e-01   3.7513761e-05
  2.9559684e-01   2.4615028e-05
 -1.0349004e-01   1.9731892e-04
 -2.4676567e-04   7.4696213e-06
 -1.6023442e+00   1.3220569e-09
 -1.5517961e+00   4.2970488e-03
  3.2125604e-01   1.0032022e-05
  1.4780670e+00   2.3600228e-04
 -2.4077916e-01   1.2288212e-04
 -3.3168706e-01   5.9527792e-05
 -6.4675626e-03   1.3052113e-05
 -2.8405404e-01   3.5010063e-04
 -6.5426499e-01   4.6594114e-06
  1.1450775e+00   6.6893358e-06
  5.1952189e-01   4.7594958e-04
  9.9092621e-01   5.5079116e-05
 -9.4975881e-02   1.7878355e-02
  1.9787093e-01   3.0265892e-06
 -8.8095710e-02   1.4156595e-02
 -1.1648034e-01   1.3834413e-05
 -4.0632388e-01   4.4379340e-09
  5.7998527e-02   8.0201346e-03
  5.9911877e-02   1.8318746e-03
  7.1934295e-01   5.2041198e-08
 -1.7451113e-02   7.9227565e-03
 -1.0657429e-01   3.5836801e-03
  8.2281455e-02   7.8613851e-03
 -2.3779033e-01   3.8209628e-06
 -1.9388767e-02   2.0032744e-04
 -3.7020782e-01   3.6593857e-03
  1.1696319e-01   4.3783373e-05
  1.6236185e-01   1.7655769e-02
  1.3025795e+00   1.6873362e-04
  6.6590172e-01   1.1607113e-07
 -2.0949346e-01   3.3039134e-05
  2.5324774e-01   9.4036956e-08
 -1.6328658e-01   1.2852286e-03
  1.5143333e-01   1.7482410e-04
 -4.1091692e-02   6.6125642e-05
 -3.1945062e-01   9.2089944e-02
 -3.2866797e-01   6.0598287e-03
 -5.9637986e-02   4.5755874e-06
  3.7282196e-01   7.8790891e-04
  3.5344627e-01   4.2918618e-06
 -1.4817423e-01   2.0441744e-08
 -9.1741309e-02   6.9738926e-05
  2.8493398e-01   1.9554840e-03
 -1.2792581e-01   7.8384178e-03
 -3.0086878e-01   2.6345479e-03
 -2.1241122e-01   8.0770431e-03
  1.8429157e-01   9.8052877e-04
 -6.3624963e-02   1.3357016e-02
 -8.6459599e-02   1.0441739e-02
  1.0348279e-01   4.1833118e-04
 -3.5793796e-01   3.3230535e-05
 -3.0279411e-02   5.0776345e-03
 -5.3524621e-02   4.8402100e-05
 -1.2379982e-01   4.8066452e-02
 -9.0866089e-02   1.1274767e-03
 -7.7419221e-01   1.0773571e-09
  6.7990810e-01   3.1509692e-06
  3.7130971e-02   4.7922954e-02
 -7.6718017e-02   2.1646353e-03
 -2.6787823e-01   6.1877356e-05
  9.8938859e-01   1.0108463e-07
  5.8511842e-02   1.5291566e-02
 -6.7831561e-02   3.4469758e-05
 -5.2972261e-02   2.2490881e-03
 -1.9577293e-01   7.0996031e-10
  1.0613410e-01   2.6120995e-05
  6.7328088e-02   4.3038195e-03
 -3.2525718e-02   2.1970818e-02
  4.2248205e-03   3.0283345e-04
  2.5961214e-01   2.9363364e-04
 -1.8298887e-02   2.6342529e-04
 -4.3019941e-01   7.4518385e-04
 -8.0000412e-01   1.4099099e-06
 -2.0179398e-01   2.9525632e-04
 -1.2656796e-01   7.1954300e-09
  5.6938887e-02   4.0175833e-06
 -8.1241608e-01   6.6800584e-07
 -6.7930043e-01   2.3314385e-07
  1.9355121e+00   2.0569714e-03
 -4.7431746e-03   1.4820570e-03
 -2.6049950e+00   4.1309177e-04
 -5.9240282e-02   2.3795842e-07
 -3.2529601e-01   7.3215726e-04
 -4.5257556e-01   1.0567950e-04
 -1.0097833e+00   3.8255374e-05
  1.7535414e+00   1.5977545e-06
  4.7698423e-01   7.0714908e-05
  1.4658897e-01   1.8636411e-04
  4.4023242e-02   1.5342437e-05
  1.2515389e+01   7.4398157e-04
 -6.1447299e-01   9.7981099e-09
 -2.5735676e-01   2.9633393e-05
  1.8785758e-01   4.9425769e-03
 -1.3158667e+00   9.9806985e-06
 -1.7122878e+00   9.4750267e-04
 -4.8839194e-01   3.8183032e-05
 -3.8131955e-01   1.9729242e-04
 -3.2157266e-01   1.1400896e-04
  2.1978562e+00   3.7180173e-05
  7.7601910e-01   1.9911854e-06
 -6.6825566e+00   5.1760813e-04
 -8.2680339e-01   7.1432447e-04
  7.4995393e-01   2.3066129e-06
 -7.9831254e-01   2.4644908e-06
 -1.1807913e+00   1.6593352e-03
 -7.9574740e-01   1.2539580e-04
 -2.2502980e+00   7.0724418e-05
 -5.4635894e-01   6.4397324e-03
  5.0025499e-01   2.9221593e-07
 -2.8560644e-01   1.3765937e-06
 -1.7813092e-01   8.6257707e-05
 -1.0803463e+00   1.3895942e-06
  4.3126035e-02   8.9153566e-04
  7.7506907e-02   2.0357214e-03
 -9.4429517e-01   5.7552861e-05
 -5.0388056e-01   1.1921206e-04
  5.0748992e-01   1.6876525e-06
  2.9538244e-01   1.6177769e-03
 -5.4101229e-01   9.2090843e-08
  7.0122243e-03   2.6848223e-03
  4.2425331e-01   2.7610022e-06
  6.9840103e-01   2.0066823e-04
 -3.5483919e-02   5.7817080e-09
 -3.6444744e-01   2.6338230e-05
 -1.8952855e+00   3.6673905e-06
  1.7344420e-01   2.1306751e-04
 -2.4910517e-01   4.3911994e-05
  1.3548892e+00   3.1107984e-04
  6.6784686e-01   1.0270734e-10
 -8.2352883e-01   1.8892490e-05
  1.0026178e+00   8.0113622e-09
 -1.9579123e+00   2.9584535e-09
  2.4206236e-01   2.3894432e-05
  1.8249536e+00   8.2048891e-06
  1.6838038e+00   4.0058266e-11
 -7.9777397e-02   3.3757096e-06
  1.2818596e+00   1.6276712e-05
  4.6212623e-01   2.9523697e-05
 -9.7942436e-01   2.9717577e-05
  5.9158158e-01   7.5122283e-05
  3.4255570e-01   5.3326548e-11
  3.2056126e-01   4.7275346e-08
 -2.6233017e-03   9.4360239e-06
  4.4475973e-01   7.7154010e-07
  1.1764368e-01   6.8682257e-06
 -3.7652811e-01   3.7840051e-05
  4.1151214e-02   4.8858178e-04
 -1.0066765e-01   6.0639384e-05
 -1.0262353e+00   1.0601271e-06
 -8.9079416e-01   2.0405557e-07
  2.0340722e+00   1.6259785e-09
  2.2601495e+00   1.0666690e-08
 -4.1987187e-01   2.4354152e-08
  3.9671960e-01   2.5311087e-03
  6.3211286e-01   3.0782616e-07
  1.0575525e+00   2.6864000e-04
  1.0932246e+00   4.1538369e-06
  1.0835413e+00   3.4056132e-04
 -5.9005517e-01   2.4112956e-06
  1.1722825e+00   5.4150009e-05
 -7.1172065e-01   1.0139024e-04
 -3.4823632e-01   1.0034166e-03
  6.4889252e-01   6.9538772e-04
  1.1376235e-01   1.2993140e-03
 -6.1284211e-02   1.7780158e-05
  2.4380119e+00   1.6297645e-05
 -1.3588063e-01   3.1635718e-04
  1.6564984e+00   2.7030530e-06
 -2.7842360e+00   2.2245212e-07
 -1.1022194e-01   2.7124863e-06
 -4.8439872e-01   1.1229045e-06
  8.7554449e-01   3.1780532e-06
  6.5395996e-02   2.7686379e-05
 -1.6468201e+00   5.6386973e-05
  3.1279829e-01   3.3156418e-06
 -2.9071304e-01   4.3789471e-05
  1.0868592e+00   2.5688843e-05
 -2.2839269e-01   9.9434533e-07
 -1.1211077e-01   5.7453453e-04
  8.2207590e-01   6.5778676e-07
 -6.7041719e-01   4.1807762e-06
 -6.8769044e-01   6.7629899e-06
 -1.7371626e+00   3.9223640e-05
 -2.5081626e-01   1.6166891e-07
 -9.2976141e-01   4.1091982e-05
 -3.0565470e-01   5.9671049e-05
 -2.8166229e-01   4.2562395e-05
 -1.0191361e+00   1.3925694e-04
 -8.6544722e-01   5.0669754e-05
  3.2325637e-01   3.8946315e-08
 -2.3842843e-01   2.3769060e-06
 -4.0618259e-01   1.6251877e-05
 -1.0615104e+00   2.9308001e-07
  3.9143127e-01   9.1443411e-07
 -3.1839553e-01   1.3018447e-05
  5.4321343e-01   7.4781128e-05
 -3.2684922e+00   1.4303456e-08
 -5.5503935e-01   1.6721282e-06
  7.8345615e-01   1.0615469e-09
 -1.9954778e-01   2.7569582e-05
 -5.1319027e-01   1.5030882e-03
 -1.9094943e-01   5.8009224e-05
  1.3100485e+00   4.3634222e-06
 -1.4391039e-01   1.8411967e-07
 -1.2202671e+00   2.8669980e-04
 -1.1558896e+00   3.8244198e-06
  2.1887987e+00   2.1042896e-02
  4.7500461e-01   1.3859040e-03
  5.9347981e-01   3.2258136e-04
 -1.3095002e-01   1.0792217e-03
 -1.0697523e+00   1.1216350e-04
 -1.1120343e-01   4.4431710e-03
 -1.8261867e+00   1.6780066e-03
 -5.5068269e-02   2.3691637e-04
  7.9368955e-01   2.9365786e-08
 -2.5957727e-01   8.3189028e-05
  1.2858070e+00   5.1764573e-08
 -4.8584825e-01   8.5405072e-06
  2.0117576e+00   5.4726727e-11
 -2.3123491e-01   5.7372699e-07
 -3.1097490e-02   5.5541712e-08
  2.1519059e-01   5.8181722e-06
 -3.1838354e-01   2.3822610e-04
 -2.8021364e+00   9.2881628e-08
 -3.8574457e-01   7.2562578e-08
 -3.6778521e-02   8.9049126e-06
 -3.2141852e-01   1.1930334e-05
 -6.1671674e-01   1.5432929e-04
 -7.2767574e-01   4.1224248e-06
 -5.7366621e-01   6.8145302e-05
 -6.3305545e-01   7.1810052e-07
 -4.5124686e-01   1.6609781e-06
 -1.0858148e+00   1.4165628e-06
 -1.5780485e-01   2.5382862e-08
 -1.1827590e+00   1.8456066e-09
 -3.0322680e-01   2.2151439e-06
 -1.5279753e+00   3.0879939e-08
 -3.1959084e-01   9.2885770e-09
 -7.6999269e-02   1.9433254e-07
 -1.0798369e-03   4.4441153e-05
  6.0467601e-01   1.0734489e-05
 -6.4215893e-01   3.7611592e-06
 -2.5863546e-01   2.3268949e-06
 -1.2549716e-01   3.8577880e-05
  1.2186180e-02   1.1914107e-06
  3.0783063e-01   5.7462104e-05
 -1.1726423e-01   3.9226262e-09
  1.3746444e+00   2.0333312e-03
 -1.8471740e+00   1.5728450e-05
  1.3536979e-02   7.1440917e-04
  8.9338191e-02   4.6936043e-06
 -7.6159966e-01   1.5641151e-03
  1.0125332e+00   1.1684494e-06
 -8.7587945e-02   5.2859058e-04
  1.4327571e+00   4.0493240e-03
 -3.2229319e-02   9.7934226e-06
 -9.8548591e-02   2.6705774e-04
 -1.6697215e-02   6.1428326e-04
 -4.1801736e-01   3.5056961e-03
 -3.8661429e-01   1.4443981e-04
 -1.4989185e-01   5.3167865e-02
 -1.8182967e-02   1.8992124e-06
 -5.5701625e-01   9.1069654e-07
  2.9034859e-01   1.5045734e-09
 -1.9501923e-01   1.9935827e-05
 -1.1241204e-01   3.1429259e-08
  2.3314206e-01   8.1975511e-09
  1.2400177e+00   5.7565539e-06
  1.5148211e-01   4.5847480e-07
  3.7823847e-01   4.4367713e-05
 -2.5161901e+00   3.3764212e-05
  2.2653327e+00   3.8566452e-07
  3.4989462e+00   3.9762142e-04
 -1.1826549e+00   2.6727079e-05
  1.3402883e+00   1.3127591e-05
  5.0450116e-01   1.2060566e-04
 -9.1147706e-02   4.6938198e-06
 -2.7160642e+00   1.8364907e-04
  1.0526189e+00   3.9376657e-05
 -2.3042228e+00   5.8508583e-04
  1.0312104e+00   2.6794278e-05
 -3.5082812e+00   3.9708462e-07
 -2.1485078e+00   1.3822111e-07
 -2.4325583e+00   3.5912701e-06
  2.8850260e-01   2.9749953e-07
  1.7120574e+00   2.6179128e-04
  7.4561733e-01   3.1028088e-05
  1.1357362e+00   8.2455124e-05
 -7.8326911e-01   6.2825850e-10
 -1.0011152e+00   6.7546665e-05
  2.0118116e-01   4.6044388e-06
 -2.2423379e-01   2.5176059e-08
  1.3012934e-02   5.5342392e-05
  1.2354451e+00   2.1589462e-05
  1.2788738e+00   2.5270336e-05
 -1.0540361e+00   5.2237890e-05
 -1.0170681e+00   3.6820547e-05
  7.5697434e-01   5.9667127e-06
 -9.9604082e-01   1.3149329e-03
  7.2344713e-02   3.8663446e-05
 -5.1862586e-01   5.5201835e-06
 -2.5948158e-01   4.1083887e-08
  9.2252272e-01   3.1862299e-05
  1.3879803e-01   1.0965008e-03
  1.2399332e-01   2.6501903e-07
  2.5894526e-01   1.2205055e-02
  1.7432420e+00   6.8461350e-03
 -4.4966415e-01   2.2681787e-05
 -1.6367050e+00   1.3506899e-07
  7.4755126e-01   8.7054659e-06
 -6.8542264e-02   8.7383199e-07
  6.1789864e-01   4.4608669e-07
  3.6950147e-01   1.1869637e-06
 -9.9845165e-01   1.9597252e-05
 -6.2719232e-01   2.4793112e-06
 -2.6323003e-01   2.4316480e-04
  9.9382609e-02   1.2968523e-05
  2.2358520e+00   5.3995627e-05
  1.4215560e+00   1.5909599e-04
 -4.2706952e+00   1.0375781e-05
  8.0441737e-01   6.6600637e-06
 -1.8323188e+00   1.1155040e-06
  2.3100634e+00   3.5321744e-05
 -1.5215669e+00   1.9442378e-07
  3.3697119e+00   4.0658691e-08
 -4.0158243e+00   2.7005557e-05
  1.3798785e+00   3.0386721e-04
  8.7554038e-01   5.3201988e-05
 -2.7926347e+00   4.3168642e-05
 -2.2946644e+00   4.5441013e-08
 -1.2202418e-01   3.0076972e-04
  5.3489846e-01   6.6727648e-07
 -5.6052697e-01   5.4773741e-06
 -5.1094741e-01   2.0264546e-04
 -9.6166074e-01   2.8959996e-05
  1.1434349e+00   7.7088498e-06
 -2.0200986e-01   8.0184182e-05
 -5.1986134e-01   1.0329954e-05
 -2.0905797e+00   3.1624384e-07
 -3.2848975e-01   1.3734215e-04
  3.7275675e-01   1.8305758e-06
 -1.6158118e+00   3.3217126e-05
 -2.8355080e-01   1.5176130e-04
  3.8886660e-01   1.3077189e-04
  2.0223598e+00   7.6684984e-08
 -1.0025000e-01   2.8777576e-09
 -2.8805687e+00   4.5187748e-04
 -2.5409987e+00   1.2595488e-05
 -3.9076619e-02   8.5973305e-05
  2.2402741e-01   1.7555084e-04
  9.4597244e-01   5.1082106e-04
 -7.3532856e-01   1.1981574e-05
 -7.9288870e-02   3.4305621e-03
  2.6677677e-01   9.2321646e-04
  1.5474731e-01   4.1187889e-04
 -1.8520370e-01   5.5205503e-05
  4.4472590e-01   1.7930788e-07
 -1.8806842e-01   6.5255591e-07
 -2.5879964e-01   5.7989356e-09
 -6.1211336e-01   5.3982268e-07
  1.0711876e+00   3.7498335e-06
  6.9932771e-01   8.0526574e-04
  8.7153338e-02   3.9435434e-08
  6.3910568e-01   1.2492188e-05
 -1.2454876e-01   3.2437249e-04
  1.8393244e+00   3.0601580e-06
  2.6747596e+00   5.2401226e-04
  6.5395224e-01   9.2043763e-07
  2.1866462e-01   3.6562010e-04
  2.7144408e-01   5.0182204e-04
  4.3821167e-02   1.0724858e-05
 -5.5536473e-01   4.3594324e-07
  9.0468949e-01   1.6463850e-06
  1.9075926e-01   2.6279164e-04
  8.3169144e-01   3.6002887e-06
 -3.5559691e-02   1.4782379e-06
 -2.7172777e-01   1.1308989e-05
  1.7867982e+00   1.1291808e-04
 -5.5419880e-01   1.1004726e-04
  4.6144694e-01   5.1934505e-05
  4.5600048e-01   3.0243673e-04
 -3.8475063e-01   7.7806064e-05
  1.0047276e+00   3.8310634e-05
  2.1026185e-01   1.1399533e-07
  1.2641124e+00   2.0301357e-05
 -7.9992843e-01   7.5817102e-06
  4.0934485e-01   1.6013209e-07
 -3.8667037e+00   3.4531820e-04
 -8.3976066e-01   5.6027397e-07
  2.7205965e-01   1.9673137e-04
  1.2756224e+00   2.6092524e-04
  6.9881640e-02   4.5511703e-04
  2.7792400e-01   1.3063815e-04
  7.6137534e-03   1.7124201e-05
 -3.2554400e-01   1.2108667e-02
  4.8379898e-01   7.8303022e-03
 -1.0656799e-03   2.0803215e-03
 -4.4758859e-01   1.9752681e-06
 -5.4412389e-01   3.6311172e-05
  1.0478547e-01   3.3418024e-03
 -2.7835059e-01   5.1675482e-07
 -3.2555103e-01   1.3821172e-02
  3.3792183e-01   1.6564041e-05
 -5.5327100e-01   1.5388326e-04
  7.7456892e-02   1.8084416e-10
  1.5491911e+00   6.7437225e-07
  6.5205514e-01   3.6232123e-07
  9.9549577e-02   1.4061302e-06
  3.5326090e-01   2.7416622e-06
  8.2013613e-01   1.2917604e-06
 -6.3662477e-02   5.2464497e-05
 -2.0377149e-01   2.1698895e-06
  5.1346713e-01   9.0754151e-07
 -1.7130860e+00   2.4540536e-04
 -3.7811473e-01   7.4952467e-08
  1.4872442e-01   1.8479032e-08
  7.3786944e-02   3.6573631e-04
 -6.6146189e-01   2.1728529e-05
  4.9819965e+00   2.0152000e-05
 -1.2510544e+00   4.6142933e-04
  3.2093418e+00   2.6199676e-05
  8.1931718e-02   5.5267174e-07
 -1.1675080e-01   5.6224297e-05
 -1.4153761e-01   1.6781187e-06
 -5.8773434e-01   1.2521826e-04
  4.8027340e-01   4.4200910e-06
 -4.7685329e-02   1.6351885e-04
 -4.8008585e-01   1.2264843e-05
  3.1633165e-01   1.4094466e-04
 -7.1459544e-01   4.1769304e-06
 -8.5231489e-01   1.6472460e-04
 -1.7959837e+00   7.6208074e-05
  2.9833561e-01   1.6625288e-05
  4.2362848e-01   9.0231470e-07
 -6.4303339e-01   4.8840458e-05
 -2.1016626e-01   6.5041282e-03
  1.3198153e+00   2.1940695e-04
  2.0009081e+00   8.2521450e-07
 -6.5168338e+00   1.1391165e-04
  4.1451831e+00   5.9414474e-06
  1.9067444e-01   1.9163774e-06
 -1.4609144e+00   1.6708497e-02
  1.2892731e-01   5.4753418e-05
 -1.6595507e+00   1.3633670e-04
 -6.1885446e-02   3.1521777e-04
 -2.2713481e-01   1.9001711e-06