
***************************************************************
*                 Welcome to use GPUMD                        *
*    (Graphics Processing Units Molecular Dynamics)           *
*                    Version 3.9.4                            *
*              This is the nep executable                     *
***************************************************************


---------------------------------------------------------------
GPU information:
---------------------------------------------------------------

number of GPUs = 4
Device id:                   0
    Device name:             Tesla V100-PCIE-32GB
    Compute capability:      7.0
    Amount of global memory: 31.7487 GB
    Number of SMs:           80
Device id:                   1
    Device name:             Tesla V100-PCIE-32GB
    Compute capability:      7.0
    Amount of global memory: 31.7487 GB
    Number of SMs:           80
Device id:                   2
    Device name:             Tesla V100-PCIE-32GB
    Compute capability:      7.0
    Amount of global memory: 31.7487 GB
    Number of SMs:           80
Device id:                   3
    Device name:             Tesla V100-PCIE-32GB
    Compute capability:      7.0
    Amount of global memory: 31.7487 GB
    Number of SMs:           80
GPU-0 can access GPU-1.
GPU-0 can access GPU-2.
GPU-0 can access GPU-3.
GPU-1 can access GPU-0.
GPU-1 can access GPU-2.
GPU-1 can access GPU-3.
GPU-2 can access GPU-0.
GPU-2 can access GPU-1.
GPU-2 can access GPU-3.
GPU-3 can access GPU-0.
GPU-3 can access GPU-1.
GPU-3 can access GPU-2.

---------------------------------------------------------------
Started running nep.
---------------------------------------------------------------


---------------------------------------------------------------
Started reading nep.in.
---------------------------------------------------------------

Input or default parameters:
    (default) model_type = potential.
    (default) calculation mode = train.
    (input)   use NEP version 3.
    (input)   number of atom types = 1.
        (default) type 0 (C with Z = 6) has force weight of 1.
    (default) will not add the ZBL potential.
    (input)   radial cutoff = 8 A.
    (input)   angular cutoff = 4 A.
    (input)   n_max_radial = 4.
    (input)   n_max_angular = 6.
    (input)   basis_size_radial = 10.
    (input)   basis_size_angular = 8.
    (input)   l_max_3body = 4.
    (input)   l_max_4body = 2.
    (input)   l_max_5body = 1.
    (input)   number of neurons = 100.
    (default) lambda_1 = 0.0224031.
    (default) lambda_2 = 0.0224031.
    (input)   lambda_e = 1.
    (input)   lambda_f = 10.
    (input)   lambda_v = 0.
    (default) lambda_shear = 1.
    (default) force_delta = 0.
    (input)   batch size = 81.
    (input)   population size = 52.
    (input)   maximum number of generations = 400000.
Some calculated parameters:
    number of radial descriptor components = 5.
    number of angular descriptor components = 42.
    total number of descriptor components = 47.
    NN architecture = 47-100-1.
    number of NN parameters to be optimized = 4901.
    number of descriptor parameters to be optimized = 118.
    total number of parameters to be optimized = 5019.

---------------------------------------------------------------
Finished reading nep.in.
---------------------------------------------------------------


---------------------------------------------------------------
Started reading train.xyz.
---------------------------------------------------------------

Number of configurations = 241.
Number of devices = 4
Number of batches = 3

Batch 0:
Number of configurations = 81.

---------------------------------------------------------------
Constructing train_set in device  0.
Total number of atoms = 4860.
Number of atoms in the largest configuration = 60.
Number of configurations having virial = 0.
Radial descriptor with a cutoff of 8 A:
    Minimum number of neighbors for one atom = 59.
    Maximum number of neighbors for one atom = 59.
Angular descriptor with a cutoff of 4 A:
    Minimum number of neighbors for one atom = 17.
    Maximum number of neighbors for one atom = 20.
---------------------------------------------------------------


---------------------------------------------------------------
Constructing train_set in device  1.
Total number of atoms = 4860.
Number of atoms in the largest configuration = 60.
Number of configurations having virial = 0.
Radial descriptor with a cutoff of 8 A:
    Minimum number of neighbors for one atom = 59.
    Maximum number of neighbors for one atom = 59.
Angular descriptor with a cutoff of 4 A:
    Minimum number of neighbors for one atom = 17.
    Maximum number of neighbors for one atom = 20.
---------------------------------------------------------------


---------------------------------------------------------------
Constructing train_set in device  2.
Total number of atoms = 4860.
Number of atoms in the largest configuration = 60.
Number of configurations having virial = 0.
Radial descriptor with a cutoff of 8 A:
    Minimum number of neighbors for one atom = 59.
    Maximum number of neighbors for one atom = 59.
Angular descriptor with a cutoff of 4 A:
    Minimum number of neighbors for one atom = 17.
    Maximum number of neighbors for one atom = 20.
---------------------------------------------------------------


---------------------------------------------------------------
Constructing train_set in device  3.
Total number of atoms = 4860.
Number of atoms in the largest configuration = 60.
Number of configurations having virial = 0.
Radial descriptor with a cutoff of 8 A:
    Minimum number of neighbors for one atom = 59.
    Maximum number of neighbors for one atom = 59.
Angular descriptor with a cutoff of 4 A:
    Minimum number of neighbors for one atom = 17.
    Maximum number of neighbors for one atom = 20.
---------------------------------------------------------------


Batch 1:
Number of configurations = 81.

---------------------------------------------------------------
Constructing train_set in device  0.
Total number of atoms = 4860.
Number of atoms in the largest configuration = 60.
Number of configurations having virial = 0.
Radial descriptor with a cutoff of 8 A:
    Minimum number of neighbors for one atom = 59.
    Maximum number of neighbors for one atom = 59.
Angular descriptor with a cutoff of 4 A:
    Minimum number of neighbors for one atom = 17.
    Maximum number of neighbors for one atom = 21.
---------------------------------------------------------------


---------------------------------------------------------------
Constructing train_set in device  1.
Total number of atoms = 4860.
Number of atoms in the largest configuration = 60.
Number of configurations having virial = 0.
Radial descriptor with a cutoff of 8 A:
    Minimum number of neighbors for one atom = 59.
    Maximum number of neighbors for one atom = 59.
Angular descriptor with a cutoff of 4 A:
    Minimum number of neighbors for one atom = 17.
    Maximum number of neighbors for one atom = 21.
---------------------------------------------------------------


---------------------------------------------------------------
Constructing train_set in device  2.
Total number of atoms = 4860.
Number of atoms in the largest configuration = 60.
Number of configurations having virial = 0.
Radial descriptor with a cutoff of 8 A:
    Minimum number of neighbors for one atom = 59.
    Maximum number of neighbors for one atom = 59.
Angular descriptor with a cutoff of 4 A:
    Minimum number of neighbors for one atom = 17.
    Maximum number of neighbors for one atom = 21.
---------------------------------------------------------------


---------------------------------------------------------------
Constructing train_set in device  3.
Total number of atoms = 4860.
Number of atoms in the largest configuration = 60.
Number of configurations having virial = 0.
Radial descriptor with a cutoff of 8 A:
    Minimum number of neighbors for one atom = 59.
    Maximum number of neighbors for one atom = 59.
Angular descriptor with a cutoff of 4 A:
    Minimum number of neighbors for one atom = 17.
    Maximum number of neighbors for one atom = 21.
---------------------------------------------------------------


Batch 2:
Number of configurations = 79.

---------------------------------------------------------------
Constructing train_set in device  0.
Total number of atoms = 4740.
Number of atoms in the largest configuration = 60.
Number of configurations having virial = 0.
Radial descriptor with a cutoff of 8 A:
    Minimum number of neighbors for one atom = 59.
    Maximum number of neighbors for one atom = 59.
Angular descriptor with a cutoff of 4 A:
    Minimum number of neighbors for one atom = 17.
    Maximum number of neighbors for one atom = 21.
---------------------------------------------------------------


---------------------------------------------------------------
Constructing train_set in device  1.
Total number of atoms = 4740.
Number of atoms in the largest configuration = 60.
Number of configurations having virial = 0.
Radial descriptor with a cutoff of 8 A:
    Minimum number of neighbors for one atom = 59.
    Maximum number of neighbors for one atom = 59.
Angular descriptor with a cutoff of 4 A:
    Minimum number of neighbors for one atom = 17.
    Maximum number of neighbors for one atom = 21.
---------------------------------------------------------------


---------------------------------------------------------------
Constructing train_set in device  2.
Total number of atoms = 4740.
Number of atoms in the largest configuration = 60.
Number of configurations having virial = 0.
Radial descriptor with a cutoff of 8 A:
    Minimum number of neighbors for one atom = 59.
    Maximum number of neighbors for one atom = 59.
Angular descriptor with a cutoff of 4 A:
    Minimum number of neighbors for one atom = 17.
    Maximum number of neighbors for one atom = 21.
---------------------------------------------------------------


---------------------------------------------------------------
Constructing train_set in device  3.
Total number of atoms = 4740.
Number of atoms in the largest configuration = 60.
Number of configurations having virial = 0.
Radial descriptor with a cutoff of 8 A:
    Minimum number of neighbors for one atom = 59.
    Maximum number of neighbors for one atom = 59.
Angular descriptor with a cutoff of 4 A:
    Minimum number of neighbors for one atom = 17.
    Maximum number of neighbors for one atom = 21.
---------------------------------------------------------------


---------------------------------------------------------------
Started reading test.xyz.
---------------------------------------------------------------

Number of configurations = 90.

---------------------------------------------------------------
Constructing test_set in device  0.
Total number of atoms = 5400.
Number of atoms in the largest configuration = 60.
Number of configurations having virial = 0.
Radial descriptor with a cutoff of 8 A:
    Minimum number of neighbors for one atom = 59.
    Maximum number of neighbors for one atom = 59.
Angular descriptor with a cutoff of 4 A:
    Minimum number of neighbors for one atom = 17.
    Maximum number of neighbors for one atom = 21.
---------------------------------------------------------------


---------------------------------------------------------------
Constructing test_set in device  1.
Total number of atoms = 5400.
Number of atoms in the largest configuration = 60.
Number of configurations having virial = 0.
Radial descriptor with a cutoff of 8 A:
    Minimum number of neighbors for one atom = 59.
    Maximum number of neighbors for one atom = 59.
Angular descriptor with a cutoff of 4 A:
    Minimum number of neighbors for one atom = 17.
    Maximum number of neighbors for one atom = 21.
---------------------------------------------------------------


---------------------------------------------------------------
Constructing test_set in device  2.
Total number of atoms = 5400.
Number of atoms in the largest configuration = 60.
Number of configurations having virial = 0.
Radial descriptor with a cutoff of 8 A:
    Minimum number of neighbors for one atom = 59.
    Maximum number of neighbors for one atom = 59.
Angular descriptor with a cutoff of 4 A:
    Minimum number of neighbors for one atom = 17.
    Maximum number of neighbors for one atom = 21.
---------------------------------------------------------------


---------------------------------------------------------------
Constructing test_set in device  3.
Total number of atoms = 5400.
Number of atoms in the largest configuration = 60.
Number of configurations having virial = 0.
Radial descriptor with a cutoff of 8 A:
    Minimum number of neighbors for one atom = 59.
    Maximum number of neighbors for one atom = 59.
Angular descriptor with a cutoff of 4 A:
    Minimum number of neighbors for one atom = 17.
    Maximum number of neighbors for one atom = 21.
---------------------------------------------------------------


---------------------------------------------------------------
Time used for initialization = 0.060000 s.
---------------------------------------------------------------


---------------------------------------------------------------
Started training.
---------------------------------------------------------------

Step    Total-Loss L1Reg-Loss L2Reg-Loss RMSE-E-Train RMSE-F-Train RMSE-V-Train RMSE-E-Test  RMSE-F-Test  RMSE-V-Test  
100     1.38882    0.01583    0.02558    0.00151      0.13459      0.00000      0.00173      0.13508      0.00000      
200     1.10591    0.01590    0.02637    0.00102      0.10626      0.00000      0.00125      0.10643      0.00000      
300     0.88901    0.01592    0.02634    0.00072      0.08460      0.00000      0.00083      0.08462      0.00000      
400     0.73161    0.01591    0.02586    0.00047      0.06894      0.00000      0.00054      0.06944      0.00000      
500     0.64265    0.01588    0.02534    0.00030      0.06011      0.00000      0.00038      0.06142      0.00000      
600     0.61689    0.01587    0.02522    0.00034      0.05755      0.00000      0.00033      0.05751      0.00000      
700     0.58603    0.01586    0.02519    0.00027      0.05447      0.00000      0.00031      0.05487      0.00000      
800     0.56093    0.01585    0.02516    0.00024      0.05197      0.00000      0.00029      0.05300      0.00000      
900     0.55739    0.01585    0.02516    0.00029      0.05161      0.00000      0.00028      0.05156      0.00000      
1000    0.53928    0.01585    0.02515    0.00023      0.04981      0.00000      0.00028      0.05049      0.00000      
1100    0.52542    0.01585    0.02515    0.00023      0.04842      0.00000      0.00027      0.04969      0.00000      
1200    0.53200    0.01585    0.02515    0.00028      0.04907      0.00000      0.00026      0.04912      0.00000      
1300    0.52001    0.01586    0.02515    0.00020      0.04788      0.00000      0.00026      0.04873      0.00000      
1400    0.51227    0.01587    0.02515    0.00022      0.04710      0.00000      0.00025      0.04845      0.00000      
1500    0.52302    0.01587    0.02515    0.00027      0.04817      0.00000      0.00025      0.04823      0.00000      
1600    0.51338    0.01587    0.02515    0.00019      0.04722      0.00000      0.00025      0.04809      0.00000      
1700    0.50752    0.01586    0.02514    0.00022      0.04663      0.00000      0.00024      0.04800      0.00000      
1800    0.51934    0.01586    0.02514    0.00027      0.04781      0.00000      0.00024      0.04788      0.00000      
1900    0.51039    0.01586    0.02514    0.00019      0.04692      0.00000      0.00024      0.04780      0.00000      
2000    0.50503    0.01586    0.02513    0.00022      0.04638      0.00000      0.00024      0.04774      0.00000      
2100    0.51718    0.01585    0.02513    0.00027      0.04759      0.00000      0.00024      0.04768      0.00000      
2200    0.50849    0.01584    0.02512    0.00018      0.04673      0.00000      0.00024      0.04762      0.00000      
2300    0.50339    0.01584    0.02512    0.00022      0.04622      0.00000      0.00024      0.04759      0.00000      
2400    0.51567    0.01584    0.02512    0.00026      0.04745      0.00000      0.00023      0.04754      0.00000      
2500    0.50709    0.01583    0.02511    0.00018      0.04660      0.00000      0.00024      0.04750      0.00000      
2600    0.50224    0.01583    0.02511    0.00022      0.04611      0.00000      0.00024      0.04748      0.00000      
2700    0.51468    0.01583    0.02510    0.00026      0.04735      0.00000      0.00023      0.04746      0.00000      
2800    0.50614    0.01583    0.02511    0.00018      0.04650      0.00000      0.00023      0.04743      0.00000      
2900    0.50139    0.01583    0.02510    0.00022      0.04602      0.00000      0.00023      0.04742      0.00000      
3000    0.51382    0.01583    0.02510    0.00026      0.04726      0.00000      0.00023      0.04738      0.00000      
3100    0.50529    0.01583    0.02510    0.00018      0.04642      0.00000      0.00023      0.04736      0.00000      
3200    0.50073    0.01582    0.02509    0.00022      0.04596      0.00000      0.00023      0.04735      0.00000      
3300    0.51315    0.01582    0.02509    0.00026      0.04720      0.00000      0.00023      0.04732      0.00000      
3400    0.50466    0.01581    0.02509    0.00018      0.04636      0.00000      0.00023      0.04731      0.00000      
3500    0.50022    0.01581    0.02509    0.00022      0.04591      0.00000      0.00023      0.04731      0.00000      
3600    0.51268    0.01580    0.02508    0.00026      0.04715      0.00000      0.00023      0.04729      0.00000      
3700    0.50420    0.01580    0.02508    0.00018      0.04631      0.00000      0.00023      0.04727      0.00000      
3800    0.49988    0.01580    0.02508    0.00021      0.04588      0.00000      0.00023      0.04726      0.00000      
3900    0.51220    0.01580    0.02508    0.00026      0.04711      0.00000      0.00023      0.04725      0.00000      
4000    0.50376    0.01580    0.02508    0.00018      0.04627      0.00000      0.00023      0.04724      0.00000      
4100    0.49950    0.01579    0.02508    0.00021      0.04584      0.00000      0.00023      0.04724      0.00000      
4200    0.51186    0.01580    0.02508    0.00026      0.04707      0.00000      0.00023      0.04721      0.00000      
4300    0.50337    0.01579    0.02508    0.00018      0.04623      0.00000      0.00023      0.04720      0.00000      
4400    0.49917    0.01579    0.02508    0.00021      0.04581      0.00000      0.00023      0.04720      0.00000      
4500    0.51156    0.01580    0.02508    0.00026      0.04704      0.00000      0.00023      0.04718      0.00000      
4600    0.50305    0.01579    0.02508    0.00018      0.04620      0.00000      0.00023      0.04718      0.00000      
4700    0.49895    0.01580    0.02508    0.00021      0.04579      0.00000      0.00023      0.04717      0.00000      
4800    0.51132    0.01579    0.02508    0.00026      0.04702      0.00000      0.00023      0.04716      0.00000      
4900    0.50273    0.01579    0.02508    0.00018      0.04617      0.00000      0.00023      0.04716      0.00000      
5000    0.49867    0.01580    0.02508    0.00021      0.04576      0.00000      0.00023      0.04716      0.00000      
5100    0.51115    0.01579    0.02508    0.00025      0.04700      0.00000      0.00023      0.04714      0.00000      
5200    0.50254    0.01580    0.02508    0.00018      0.04615      0.00000      0.00023      0.04714      0.00000      
5300    0.49848    0.01579    0.02508    0.00021      0.04574      0.00000      0.00023      0.04713      0.00000      
5400    0.51097    0.01579    0.02508    0.00025      0.04698      0.00000      0.00023      0.04713      0.00000      
5500    0.50237    0.01579    0.02508    0.00018      0.04613      0.00000      0.00023      0.04712      0.00000      
5600    0.49836    0.01579    0.02508    0.00021      0.04573      0.00000      0.00023      0.04713      0.00000      
5700    0.51089    0.01579    0.02508    0.00025      0.04698      0.00000      0.00023      0.04710      0.00000      
5800    0.50223    0.01578    0.02508    0.00018      0.04612      0.00000      0.00023      0.04711      0.00000      
5900    0.49821    0.01579    0.02508    0.00021      0.04571      0.00000      0.00023      0.04710      0.00000      
6000    0.51079    0.01579    0.02508    0.00025      0.04697      0.00000      0.00023      0.04711      0.00000      
6100    0.50211    0.01579    0.02508    0.00018      0.04611      0.00000      0.00023      0.04709      0.00000      
6200    0.49807    0.01578    0.02508    0.00021      0.04570      0.00000      0.00023      0.04709      0.00000      
6300    0.51068    0.01578    0.02508    0.00025      0.04696      0.00000      0.00023      0.04709      0.00000      
6400    0.50199    0.01578    0.02508    0.00018      0.04610      0.00000      0.00023      0.04708      0.00000      
6500    0.49798    0.01578    0.02508    0.00021      0.04569      0.00000      0.00023      0.04708      0.00000      
6600    0.51062    0.01578    0.02508    0.00025      0.04695      0.00000      0.00023      0.04707      0.00000      
6700    0.50188    0.01579    0.02508    0.00018      0.04608      0.00000      0.00023      0.04707      0.00000      
6800    0.49788    0.01578    0.02508    0.00021      0.04568      0.00000      0.00023      0.04708      0.00000      
6900    0.51044    0.01578    0.02508    0.00025      0.04693      0.00000      0.00023      0.04707      0.00000      
7000    0.50180    0.01578    0.02508    0.00018      0.04608      0.00000      0.00023      0.04706      0.00000      
7100    0.49779    0.01579    0.02509    0.00021      0.04567      0.00000      0.00023      0.04706      0.00000      
7200    0.51050    0.01579    0.02509    0.00025      0.04694      0.00000      0.00023      0.04706      0.00000      
7300    0.50167    0.01578    0.02508    0.00018      0.04606      0.00000      0.00023      0.04706      0.00000      
7400    0.49775    0.01578    0.02508    0.00021      0.04567      0.00000      0.00023      0.04706      0.00000      
7500    0.51037    0.01578    0.02508    0.00025      0.04693      0.00000      0.00023      0.04705      0.00000      
7600    0.50156    0.01579    0.02508    0.00018      0.04605      0.00000      0.00023      0.04704      0.00000      
7700    0.49764    0.01578    0.02508    0.00021      0.04566      0.00000      0.00023      0.04705      0.00000      
7800    0.51023    0.01578    0.02508    0.00025      0.04691      0.00000      0.00023      0.04704      0.00000      
7900    0.50149    0.01578    0.02508    0.00018      0.04604      0.00000      0.00023      0.04704      0.00000      
8000    0.49757    0.01578    0.02509    0.00021      0.04565      0.00000      0.00023      0.04705      0.00000      
8100    0.51027    0.01579    0.02509    0.00025      0.04691      0.00000      0.00023      0.04703      0.00000      
8200    0.50141    0.01578    0.02508    0.00018      0.04604      0.00000      0.00023      0.04704      0.00000      
8300    0.49751    0.01578    0.02508    0.00021      0.04564      0.00000      0.00023      0.04704      0.00000      
8400    0.51023    0.01578    0.02508    0.00025      0.04691      0.00000      0.00023      0.04704      0.00000      
8500    0.50133    0.01578    0.02508    0.00018      0.04603      0.00000      0.00023      0.04703      0.00000      
8600    0.49742    0.01578    0.02508    0.00021      0.04563      0.00000      0.00023      0.04703      0.00000      
8700    0.51017    0.01578    0.02508    0.00025      0.04691      0.00000      0.00023      0.04701      0.00000      
8800    0.50124    0.01578    0.02508    0.00018      0.04602      0.00000      0.00023      0.04701      0.00000      
8900    0.49741    0.01578    0.02508    0.00021      0.04563      0.00000      0.00023      0.04703      0.00000      
9000    0.51011    0.01578    0.02508    0.00025      0.04690      0.00000      0.00023      0.04702      0.00000      
9100    0.50117    0.01578    0.02508    0.00018      0.04601      0.00000      0.00023      0.04701      0.00000      
9200    0.49735    0.01577    0.02508    0.00021      0.04563      0.00000      0.00023      0.04703      0.00000      
9300    0.51008    0.01578    0.02508    0.00025      0.04690      0.00000      0.00023      0.04702      0.00000      
9400    0.50106    0.01577    0.02508    0.00018      0.04600      0.00000      0.00023      0.04701      0.00000      
9500    0.49725    0.01578    0.02508    0.00021      0.04562      0.00000      0.00023      0.04703      0.00000      
9600    0.50998    0.01578    0.02508    0.00025      0.04689      0.00000      0.00023      0.04700      0.00000      
9700    0.50097    0.01577    0.02508    0.00018      0.04599      0.00000      0.00023      0.04700      0.00000      
9800    0.49723    0.01578    0.02508    0.00021      0.04562      0.00000      0.00023      0.04701      0.00000      
9900    0.50997    0.01578    0.02508    0.00025      0.04689      0.00000      0.00023      0.04700      0.00000      
10000   0.50095    0.01578    0.02508    0.00018      0.04599      0.00000      0.00023      0.04700      0.00000      
10100   0.49715    0.01579    0.02509    0.00021      0.04561      0.00000      0.00023      0.04700      0.00000      
10200   0.50986    0.01579    0.02508    0.00025      0.04687      0.00000      0.00023      0.04699      0.00000      
10300   0.50087    0.01579    0.02508    0.00018      0.04598      0.00000      0.00023      0.04699      0.00000      
10400   0.49713    0.01579    0.02508    0.00021      0.04560      0.00000      0.00023      0.04700      0.00000      
10500   0.50990    0.01579    0.02508    0.00025      0.04688      0.00000      0.00023      0.04700      0.00000      
10600   0.50084    0.01579    0.02508    0.00018      0.04598      0.00000      0.00023      0.04699      0.00000      
10700   0.49707    0.01580    0.02509    0.00021      0.04560      0.00000      0.00023      0.04700      0.00000      
10800   0.50995    0.01579    0.02509    0.00025      0.04688      0.00000      0.00023      0.04699      0.00000      
10900   0.50076    0.01579    0.02508    0.00018      0.04597      0.00000      0.00023      0.04698      0.00000      
11000   0.49703    0.01579    0.02508    0.00021      0.04559      0.00000      0.00023      0.04698      0.00000      
11100   0.50985    0.01579    0.02508    0.00025      0.04687      0.00000      0.00023      0.04698      0.00000      
11200   0.50074    0.01579    0.02508    0.00018      0.04597      0.00000      0.00023      0.04698      0.00000      
11300   0.49697    0.01579    0.02508    0.00021      0.04559      0.00000      0.00023      0.04699      0.00000      
11400   0.50977    0.01578    0.02508    0.00025      0.04687      0.00000      0.00022      0.04699      0.00000      
11500   0.50068    0.01578    0.02508    0.00018      0.04596      0.00000      0.00023      0.04697      0.00000      
11600   0.49697    0.01578    0.02508    0.00021      0.04559      0.00000      0.00023      0.04697      0.00000      
11700   0.50975    0.01578    0.02508    0.00025      0.04686      0.00000      0.00022      0.04699      0.00000      
11800   0.50065    0.01578    0.02508    0.00018      0.04596      0.00000      0.00023      0.04697      0.00000      
11900   0.49692    0.01578    0.02508    0.00021      0.04558      0.00000      0.00023      0.04699      0.00000      
12000   0.50975    0.01579    0.02508    0.00025      0.04686      0.00000      0.00022      0.04697      0.00000      
12100   0.50061    0.01578    0.02508    0.00018      0.04596      0.00000      0.00023      0.04698      0.00000      
12200   0.49684    0.01577    0.02508    0.00021      0.04558      0.00000      0.00023      0.04697      0.00000      
12300   0.50963    0.01577    0.02508    0.00025      0.04685      0.00000      0.00022      0.04697      0.00000      
12400   0.50056    0.01578    0.02508    0.00018      0.04595      0.00000      0.00023      0.04697      0.00000      
12500   0.49681    0.01578    0.02508    0.00021      0.04557      0.00000      0.00023      0.04696      0.00000      
12600   0.50966    0.01578    0.02509    0.00025      0.04685      0.00000      0.00022      0.04696      0.00000      
12700   0.50051    0.01579    0.02509    0.00018      0.04595      0.00000      0.00023      0.04696      0.00000      
12800   0.49676    0.01578    0.02509    0.00021      0.04557      0.00000      0.00023      0.04697      0.00000      
12900   0.50962    0.01578    0.02509    0.00025      0.04685      0.00000      0.00022      0.04696      0.00000      
13000   0.50042    0.01578    0.02509    0.00018      0.04594      0.00000      0.00023      0.04696      0.00000      
13100   0.49677    0.01579    0.02509    0.00021      0.04557      0.00000      0.00023      0.04697      0.00000      
13200   0.50959    0.01578    0.02509    0.00025      0.04685      0.00000      0.00022      0.04695      0.00000      
13300   0.50037    0.01578    0.02509    0.00018      0.04593      0.00000      0.00023      0.04696      0.00000      
13400   0.49675    0.01578    0.02509    0.00021      0.04557      0.00000      0.00023      0.04696      0.00000      
13500   0.50951    0.01578    0.02509    0.00025      0.04684      0.00000      0.00023      0.04695      0.00000      
13600   0.50034    0.01578    0.02508    0.00018      0.04593      0.00000      0.00023      0.04696      0.00000      
13700   0.49671    0.01578    0.02508    0.00021      0.04556      0.00000      0.00023      0.04696      0.00000      
13800   0.50947    0.01578    0.02509    0.00025      0.04684      0.00000      0.00022      0.04695      0.00000      
13900   0.50025    0.01578    0.02509    0.00018      0.04592      0.00000      0.00023      0.04695      0.00000      
14000   0.49667    0.01578    0.02509    0.00021      0.04556      0.00000      0.00023      0.04696      0.00000      
14100   0.50946    0.01579    0.02509    0.00025      0.04683      0.00000      0.00023      0.04695      0.00000      
14200   0.50026    0.01579    0.02509    0.00018      0.04592      0.00000      0.00023      0.04695      0.00000      
14300   0.49664    0.01579    0.02509    0.00021      0.04556      0.00000      0.00023      0.04696      0.00000      
14400   0.50947    0.01578    0.02508    0.00025      0.04684      0.00000      0.00022      0.04695      0.00000      
14500   0.50020    0.01578    0.02508    0.00018      0.04592      0.00000      0.00023      0.04695      0.00000      
14600   0.49656    0.01578    0.02509    0.00021      0.04555      0.00000      0.00023      0.04696      0.00000      
14700   0.50954    0.01578    0.02508    0.00025      0.04684      0.00000      0.00022      0.04694      0.00000      
14800   0.50015    0.01578    0.02509    0.00018      0.04591      0.00000      0.00023      0.04694      0.00000      
14900   0.49653    0.01577    0.02509    0.00021      0.04555      0.00000      0.00023      0.04697      0.00000      
15000   0.50949    0.01578    0.02509    0.00025      0.04684      0.00000      0.00022      0.04695      0.00000      
15100   0.50013    0.01577    0.02509    0.00018      0.04591      0.00000      0.00023      0.04695      0.00000      
15200   0.49651    0.01578    0.02509    0.00021      0.04554      0.00000      0.00023      0.04695      0.00000      
15300   0.50945    0.01578    0.02509    0.00025      0.04683      0.00000      0.00023      0.04694      0.00000      
15400   0.50012    0.01578    0.02509    0.00018      0.04591      0.00000      0.00023      0.04693      0.00000      
15500   0.49643    0.01578    0.02509    0.00021      0.04553      0.00000      0.00023      0.04695      0.00000      
15600   0.50942    0.01578    0.02509    0.00025      0.04683      0.00000      0.00022      0.04694      0.00000      
15700   0.50009    0.01577    0.02509    0.00018      0.04590      0.00000      0.00023      0.04693      0.00000      
15800   0.49642    0.01577    0.02509    0.00021      0.04553      0.00000      0.00023      0.04695      0.00000      
15900   0.50940    0.01578    0.02509    0.00025      0.04683      0.00000      0.00022      0.04694      0.00000      
16000   0.50005    0.01578    0.02509    0.00018      0.04590      0.00000      0.00023      0.04693      0.00000      
16100   0.49638    0.01578    0.02509    0.00021      0.04553      0.00000      0.00023      0.04695      0.00000      
16200   0.50935    0.01577    0.02509    0.00025      0.04682      0.00000      0.00023      0.04692      0.00000      
16300   0.50005    0.01578    0.02509    0.00018      0.04590      0.00000      0.00023      0.04692      0.00000      
16400   0.49637    0.01578    0.02510    0.00021      0.04553      0.00000      0.00022      0.04693      0.00000      
16500   0.50937    0.01578    0.02510    0.00025      0.04682      0.00000      0.00022      0.04692      0.00000      
16600   0.49999    0.01578    0.02510    0.00018      0.04589      0.00000      0.00023      0.04692      0.00000      
16700   0.49639    0.01578    0.02510    0.00021      0.04553      0.00000      0.00023      0.04692      0.00000      
16800   0.50942    0.01578    0.02511    0.00025      0.04683      0.00000      0.00022      0.04693      0.00000      
16900   0.49996    0.01578    0.02511    0.00018      0.04589      0.00000      0.00023      0.04693      0.00000      
17000   0.49631    0.01578    0.02511    0.00021      0.04552      0.00000      0.00023      0.04693      0.00000      
17100   0.50938    0.01578    0.02511    0.00025      0.04682      0.00000      0.00023      0.04692      0.00000      
17200   0.49992    0.01577    0.02510    0.00018      0.04589      0.00000      0.00023      0.04692      0.00000      
17300   0.49634    0.01577    0.02510    0.00021      0.04553      0.00000      0.00023      0.04692      0.00000      
17400   0.50934    0.01578    0.02510    0.00025      0.04682      0.00000      0.00022      0.04692      0.00000      
17500   0.49988    0.01577    0.02510    0.00018      0.04588      0.00000      0.00023      0.04691      0.00000      
17600   0.49630    0.01577    0.02511    0.00021      0.04552      0.00000      0.00023      0.04692      0.00000      
17700   0.50938    0.01577    0.02510    0.00025      0.04683      0.00000      0.00022      0.04691      0.00000      
17800   0.49986    0.01577    0.02510    0.00018      0.04588      0.00000      0.00023      0.04691      0.00000      
17900   0.49630    0.01577    0.02510    0.00021      0.04552      0.00000      0.00023      0.04693      0.00000      
18000   0.50937    0.01577    0.02511    0.00025      0.04682      0.00000      0.00022      0.04691      0.00000      
18100   0.49981    0.01577    0.02511    0.00018      0.04588      0.00000      0.00023      0.04691      0.00000      
18200   0.49624    0.01577    0.02511    0.00021      0.04552      0.00000      0.00022      0.04692      0.00000      
18300   0.50933    0.01577    0.02510    0.00025      0.04682      0.00000      0.00022      0.04692      0.00000      
18400   0.49979    0.01577    0.02510    0.00018      0.04587      0.00000      0.00023      0.04691      0.00000      
18500   0.49621    0.01577    0.02510    0.00021      0.04551      0.00000      0.00023      0.04692      0.00000      
18600   0.50933    0.01576    0.02510    0.00025      0.04682      0.00000      0.00022      0.04689      0.00000      
18700   0.49976    0.01576    0.02510    0.00018      0.04587      0.00000      0.00023      0.04690      0.00000      
18800   0.49620    0.01576    0.02510    0.00021      0.04551      0.00000      0.00023      0.04691      0.00000      
18900   0.50917    0.01577    0.02511    0.00025      0.04680      0.00000      0.00022      0.04690      0.00000      
19000   0.49975    0.01577    0.02510    0.00018      0.04587      0.00000      0.00023      0.04690      0.00000      
19100   0.49618    0.01577    0.02511    0.00021      0.04551      0.00000      0.00023      0.04691      0.00000      
19200   0.50926    0.01577    0.02511    0.00025      0.04681      0.00000      0.00022      0.04690      0.00000      
19300   0.49970    0.01577    0.02511    0.00018      0.04586      0.00000      0.00023      0.04690      0.00000      
19400   0.49618    0.01578    0.02511    0.00021      0.04551      0.00000      0.00023      0.04690      0.00000      
19500   0.50925    0.01578    0.02511    0.00025      0.04681      0.00000      0.00022      0.04690      0.00000      
19600   0.49968    0.01578    0.02511    0.00018      0.04586      0.00000      0.00023      0.04689      0.00000      
19700   0.49616    0.01578    0.02511    0.00021      0.04551      0.00000      0.00023      0.04689      0.00000      
19800   0.50920    0.01578    0.02511    0.00025      0.04681      0.00000      0.00022      0.04689      0.00000      
19900   0.49969    0.01578    0.02511    0.00018      0.04586      0.00000      0.00023      0.04688      0.00000      
20000   0.49613    0.01578    0.02511    0.00021      0.04550      0.00000      0.00023      0.04689      0.00000      
20100   0.50921    0.01579    0.02511    0.00025      0.04681      0.00000      0.00022      0.04689      0.00000      
20200   0.49962    0.01579    0.02512    0.00018      0.04585      0.00000      0.00023      0.04688      0.00000      
20300   0.49608    0.01579    0.02512    0.00021      0.04550      0.00000      0.00023      0.04689      0.00000      
20400   0.50920    0.01579    0.02512    0.00025      0.04680      0.00000      0.00023      0.04687      0.00000      
20500   0.49963    0.01579    0.02512    0.00018      0.04585      0.00000      0.00023      0.04689      0.00000      
20600   0.49606    0.01579    0.02512    0.00021      0.04549      0.00000      0.00023      0.04688      0.00000      
20700   0.50915    0.01580    0.02512    0.00025      0.04680      0.00000      0.00022      0.04688      0.00000      
20800   0.49955    0.01580    0.02512    0.00018      0.04584      0.00000      0.00023      0.04688      0.00000      
20900   0.49607    0.01580    0.02512    0.00021      0.04549      0.00000      0.00022      0.04687      0.00000      
21000   0.50915    0.01580    0.02512    0.00025      0.04680      0.00000      0.00022      0.04687      0.00000      
21100   0.49951    0.01581    0.02512    0.00018      0.04584      0.00000      0.00023      0.04687      0.00000      
21200   0.49604    0.01580    0.02512    0.00021      0.04549      0.00000      0.00022      0.04688      0.00000      
21300   0.50914    0.01580    0.02512    0.00025      0.04680      0.00000      0.00022      0.04688      0.00000      
21400   0.49947    0.01580    0.02512    0.00018      0.04584      0.00000      0.00023      0.04687      0.00000      
21500   0.49602    0.01580    0.02512    0.00021      0.04549      0.00000      0.00022      0.04688      0.00000      
21600   0.50912    0.01579    0.02512    0.00025      0.04680      0.00000      0.00022      0.04688      0.00000      
21700   0.49947    0.01579    0.02512    0.00018      0.04584      0.00000      0.00023      0.04687      0.00000      
21800   0.49596    0.01580    0.02512    0.00021      0.04548      0.00000      0.00022      0.04689      0.00000      
21900   0.50908    0.01580    0.02512    0.00025      0.04679      0.00000      0.00022      0.04686      0.00000      
22000   0.49945    0.01580    0.02512    0.00018      0.04583      0.00000      0.00023      0.04687      0.00000      
22100   0.49599    0.01579    0.02512    0.00021      0.04549      0.00000      0.00022      0.04688      0.00000      
22200   0.50907    0.01580    0.02512    0.00025      0.04679      0.00000      0.00022      0.04688      0.00000      
22300   0.49938    0.01580    0.02512    0.00018      0.04583      0.00000      0.00023      0.04688      0.00000      
22400   0.49600    0.01580    0.02512    0.00021      0.04549      0.00000      0.00023      0.04688      0.00000      
22500   0.50898    0.01579    0.02512    0.00025      0.04678      0.00000      0.00022      0.04687      0.00000      
22600   0.49935    0.01579    0.02512    0.00018      0.04583      0.00000      0.00023      0.04687      0.00000      
22700   0.49594    0.01579    0.02512    0.00021      0.04548      0.00000      0.00022      0.04689      0.00000      
22800   0.50897    0.01579    0.02512    0.00025      0.04678      0.00000      0.00022      0.04687      0.00000      
22900   0.49935    0.01579    0.02512    0.00018      0.04583      0.00000      0.00023      0.04687      0.00000      
23000   0.49591    0.01579    0.02512    0.00021      0.04548      0.00000      0.00022      0.04689      0.00000      
23100   0.50903    0.01579    0.02512    0.00025      0.04679      0.00000      0.00022      0.04689      0.00000      
23200   0.49933    0.01579    0.02512    0.00018      0.04582      0.00000      0.00023      0.04687      0.00000      
23300   0.49586    0.01579    0.02512    0.00021      0.04547      0.00000      0.00022      0.04686      0.00000      
23400   0.50912    0.01579    0.02512    0.00025      0.04680      0.00000      0.00022      0.04687      0.00000      
23500   0.49928    0.01579    0.02512    0.00018      0.04582      0.00000      0.00023      0.04686      0.00000      
23600   0.49581    0.01579    0.02512    0.00021      0.04547      0.00000      0.00022      0.04687      0.00000      
23700   0.50902    0.01579    0.02512    0.00025      0.04679      0.00000      0.00022      0.04687      0.00000      
23800   0.49924    0.01579    0.02512    0.00018      0.04581      0.00000      0.00023      0.04686      0.00000      
23900   0.49584    0.01579    0.02512    0.00021      0.04547      0.00000      0.00022      0.04686      0.00000      
24000   0.50902    0.01579    0.02512    0.00025      0.04679      0.00000      0.00022      0.04687      0.00000      
24100   0.49922    0.01579    0.02512    0.00018      0.04581      0.00000      0.00023      0.04686      0.00000      
24200   0.49580    0.01579    0.02512    0.00021      0.04547      0.00000      0.00022      0.04687      0.00000      
24300   0.50898    0.01579    0.02512    0.00025      0.04678      0.00000      0.00022      0.04687      0.00000      
24400   0.49918    0.01579    0.02512    0.00018      0.04581      0.00000      0.00023      0.04685      0.00000      
24500   0.49584    0.01579    0.02512    0.00021      0.04547      0.00000      0.00022      0.04686      0.00000      
24600   0.50902    0.01579    0.02512    0.00025      0.04679      0.00000      0.00022      0.04686      0.00000      
24700   0.49918    0.01579    0.02512    0.00018      0.04581      0.00000      0.00023      0.04686      0.00000      
24800   0.49582    0.01579    0.02512    0.00021      0.04547      0.00000      0.00022      0.04685      0.00000      
24900   0.50895    0.01579    0.02512    0.00025      0.04678      0.00000      0.00022      0.04686      0.00000      
25000   0.49914    0.01579    0.02512    0.00018      0.04581      0.00000      0.00022      0.04686      0.00000      
25100   0.49579    0.01579    0.02512    0.00021      0.04547      0.00000      0.00022      0.04686      0.00000      
25200   0.50891    0.01578    0.02512    0.00025      0.04678      0.00000      0.00022      0.04686      0.00000      
25300   0.49907    0.01578    0.02512    0.00018      0.04580      0.00000      0.00023      0.04685      0.00000      
25400   0.49580    0.01578    0.02513    0.00021      0.04547      0.00000      0.00022      0.04687      0.00000      
25500   0.50890    0.01579    0.02513    0.00025      0.04677      0.00000      0.00022      0.04685      0.00000      
25600   0.49908    0.01578    0.02513    0.00018      0.04580      0.00000      0.00023      0.04685      0.00000      
25700   0.49581    0.01579    0.02513    0.00021      0.04547      0.00000      0.00022      0.04686      0.00000      
25800   0.50888    0.01579    0.02513    0.00025      0.04677      0.00000      0.00022      0.04686      0.00000      
25900   0.49908    0.01579    0.02513    0.00018      0.04580      0.00000      0.00023      0.04686      0.00000      
26000   0.49574    0.01579    0.02513    0.00021      0.04546      0.00000      0.00022      0.04686      0.00000      
26100   0.50886    0.01579    0.02513    0.00025      0.04677      0.00000      0.00022      0.04685      0.00000      
26200   0.49903    0.01579    0.02513    0.00018      0.04579      0.00000      0.00023      0.04685      0.00000      
26300   0.49577    0.01579    0.02513    0.00021      0.04546      0.00000      0.00022      0.04685      0.00000      
26400   0.50890    0.01579    0.02513    0.00025      0.04677      0.00000      0.00022      0.04686      0.00000      
26500   0.49901    0.01579    0.02513    0.00018      0.04579      0.00000      0.00022      0.04685      0.00000      
26600   0.49570    0.01579    0.02513    0.00021      0.04546      0.00000      0.00022      0.04686      0.00000      
26700   0.50889    0.01579    0.02513    0.00025      0.04677      0.00000      0.00022      0.04685      0.00000      
26800   0.49899    0.01579    0.02513    0.00018      0.04579      0.00000      0.00022      0.04685      0.00000      
26900   0.49570    0.01578    0.02513    0.00021      0.04546      0.00000      0.00022      0.04686      0.00000      
27000   0.50881    0.01578    0.02513    0.00025      0.04676      0.00000      0.00022      0.04685      0.00000      
27100   0.49897    0.01578    0.02513    0.00018      0.04579      0.00000      0.00022      0.04685      0.00000      
27200   0.49566    0.01578    0.02513    0.00021      0.04545      0.00000      0.00022      0.04685      0.00000      
27300   0.50879    0.01578    0.02513    0.00025      0.04676      0.00000      0.00022      0.04684      0.00000      
27400   0.49896    0.01579    0.02513    0.00018      0.04579      0.00000      0.00022      0.04684      0.00000      
27500   0.49567    0.01578    0.02513    0.00021      0.04545      0.00000      0.00022      0.04684      0.00000      
27600   0.50880    0.01579    0.02513    0.00025      0.04676      0.00000      0.00022      0.04684      0.00000      
27700   0.49896    0.01579    0.02514    0.00018      0.04579      0.00000      0.00023      0.04683      0.00000      
27800   0.49565    0.01579    0.02513    0.00021      0.04545      0.00000      0.00022      0.04684      0.00000      
27900   0.50878    0.01579    0.02513    0.00025      0.04676      0.00000      0.00022      0.04685      0.00000      
28000   0.49894    0.01579    0.02513    0.00018      0.04578      0.00000      0.00023      0.04684      0.00000      
28100   0.49559    0.01579    0.02513    0.00021      0.04545      0.00000      0.00022      0.04684      0.00000      
28200   0.50877    0.01579    0.02513    0.00025      0.04676      0.00000      0.00022      0.04683      0.00000      
28300   0.49893    0.01579    0.02513    0.00018      0.04578      0.00000      0.00022      0.04683      0.00000      
28400   0.49560    0.01579    0.02513    0.00021      0.04545      0.00000      0.00022      0.04686      0.00000      
28500   0.50881    0.01579    0.02513    0.00025      0.04676      0.00000      0.00022      0.04684      0.00000      
28600   0.49896    0.01579    0.02513    0.00018      0.04579      0.00000      0.00023      0.04682      0.00000      
28700   0.49557    0.01579    0.02513    0.00021      0.04544      0.00000      0.00022      0.04684      0.00000      
28800   0.50875    0.01579    0.02513    0.00025      0.04676      0.00000      0.00022      0.04685      0.00000      
28900   0.49890    0.01578    0.02513    0.00018      0.04578      0.00000      0.00023      0.04684      0.00000      
29000   0.49559    0.01578    0.02513    0.00021      0.04545      0.00000      0.00022      0.04683      0.00000      
29100   0.50880    0.01578    0.02513    0.00025      0.04676      0.00000      0.00022      0.04683      0.00000      
29200   0.49884    0.01579    0.02513    0.00018      0.04577      0.00000      0.00023      0.04683      0.00000      
29300   0.49559    0.01578    0.02513    0.00021      0.04545      0.00000      0.00022      0.04684      0.00000      
29400   0.50867    0.01578    0.02513    0.00025      0.04675      0.00000      0.00022      0.04683      0.00000      
29500   0.49883    0.01578    0.02513    0.00018      0.04577      0.00000      0.00023      0.04683      0.00000      
29600   0.49556    0.01579    0.02513    0.00021      0.04544      0.00000      0.00022      0.04685      0.00000      
29700   0.50871    0.01578    0.02513    0.00025      0.04675      0.00000      0.00022      0.04684      0.00000      
29800   0.49885    0.01579    0.02514    0.00018      0.04577      0.00000      0.00022      0.04683      0.00000      
29900   0.49557    0.01579    0.02514    0.00021      0.04544      0.00000      0.00022      0.04683      0.00000      
30000   0.50875    0.01580    0.02514    0.00025      0.04676      0.00000      0.00022      0.04684      0.00000      
30100   0.49881    0.01579    0.02514    0.00018      0.04577      0.00000      0.00023      0.04683      0.00000      
30200   0.49555    0.01579    0.02514    0.00021      0.04544      0.00000      0.00022      0.04683      0.00000      
30300   0.50872    0.01579    0.02514    0.00025      0.04675      0.00000      0.00022      0.04682      0.00000      
30400   0.49881    0.01579    0.02514    0.00018      0.04577      0.00000      0.00023      0.04682      0.00000      
30500   0.49550    0.01579    0.02514    0.00021      0.04544      0.00000      0.00022      0.04683      0.00000      
30600   0.50873    0.01579    0.02514    0.00025      0.04676      0.00000      0.00022      0.04683      0.00000      
30700   0.49878    0.01580    0.02515    0.00018      0.04577      0.00000      0.00023      0.04683      0.00000      
30800   0.49551    0.01579    0.02514    0.00021      0.04544      0.00000      0.00022      0.04683      0.00000      
30900   0.50880    0.01579    0.02514    0.00025      0.04676      0.00000      0.00022      0.04683      0.00000      
31000   0.49876    0.01579    0.02515    0.00018      0.04576      0.00000      0.00022      0.04682      0.00000      
31100   0.49551    0.01580    0.02515    0.00021      0.04544      0.00000      0.00022      0.04683      0.00000      
31200   0.50871    0.01579    0.02514    0.00025      0.04675      0.00000      0.00022      0.04682      0.00000      
31300   0.49874    0.01579    0.02514    0.00018      0.04576      0.00000      0.00023      0.04681      0.00000      
31400   0.49551    0.01579    0.02514    0.00021      0.04544      0.00000      0.00022      0.04683      0.00000      
31500   0.50873    0.01579    0.02514    0.00025      0.04675      0.00000      0.00022      0.04683      0.00000      
31600   0.49869    0.01579    0.02515    0.00018      0.04576      0.00000      0.00023      0.04683      0.00000      
31700   0.49546    0.01579    0.02514    0.00021      0.04543      0.00000      0.00022      0.04683      0.00000      
31800   0.50872    0.01579    0.02514    0.00025      0.04675      0.00000      0.00022      0.04682      0.00000      
31900   0.49867    0.01579    0.02514    0.00018      0.04576      0.00000      0.00022      0.04682      0.00000      
32000   0.49548    0.01579    0.02514    0.00021      0.04543      0.00000      0.00022      0.04682      0.00000      
32100   0.50876    0.01579    0.02514    0.00025      0.04676      0.00000      0.00022      0.04681      0.00000      
32200   0.49869    0.01579    0.02514    0.00018      0.04576      0.00000      0.00022      0.04682      0.00000      
32300   0.49547    0.01579    0.02514    0.00021      0.04543      0.00000      0.00022      0.04682      0.00000      
32400   0.50872    0.01579    0.02514    0.00025      0.04676      0.00000      0.00022      0.04683      0.00000      
32500   0.49866    0.01579    0.02514    0.00018      0.04576      0.00000      0.00023      0.04682      0.00000      
32600   0.49545    0.01580    0.02514    0.00021      0.04543      0.00000      0.00022      0.04683      0.00000      
32700   0.50868    0.01580    0.02514    0.00025      0.04675      0.00000      0.00022      0.04681      0.00000      
32800   0.49867    0.01580    0.02514    0.00018      0.04576      0.00000      0.00022      0.04681      0.00000      
32900   0.49541    0.01579    0.02514    0.00021      0.04543      0.00000      0.00022      0.04681      0.00000      
33000   0.50871    0.01580    0.02514    0.00025      0.04675      0.00000      0.00022      0.04683      0.00000      
33100   0.49867    0.01580    0.02514    0.00018      0.04575      0.00000      0.00023      0.04681      0.00000      
33200   0.49538    0.01579    0.02514    0.00021      0.04542      0.00000      0.00022      0.04682      0.00000      
33300   0.50867    0.01579    0.02514    0.00025      0.04675      0.00000      0.00022      0.04681      0.00000      
33400   0.49863    0.01579    0.02514    0.00018      0.04575      0.00000      0.00023      0.04681      0.00000      
33500   0.49539    0.01578    0.02514    0.00021      0.04543      0.00000      0.00022      0.04681      0.00000      
33600   0.50872    0.01579    0.02514    0.00025      0.04675      0.00000      0.00022      0.04681      0.00000      
33700   0.49861    0.01578    0.02514    0.00018      0.04575      0.00000      0.00022      0.04680      0.00000      
33800   0.49537    0.01579    0.02515    0.00021      0.04542      0.00000      0.00022      0.04682      0.00000      
33900   0.50866    0.01579    0.02515    0.00025      0.04675      0.00000      0.00022      0.04681      0.00000      
34000   0.49863    0.01580    0.02515    0.00018      0.04575      0.00000      0.00022      0.04681      0.00000      
34100   0.49533    0.01580    0.02515    0.00021      0.04542      0.00000      0.00022      0.04683      0.00000      
34200   0.50874    0.01580    0.02515    0.00025      0.04675      0.00000      0.00022      0.04680      0.00000      
34300   0.49860    0.01580    0.02515    0.00018      0.04575      0.00000      0.00022      0.04680      0.00000      
34400   0.49536    0.01580    0.02515    0.00021      0.04542      0.00000      0.00022      0.04680      0.00000      
34500   0.50874    0.01580    0.02515    0.00025      0.04675      0.00000      0.00022      0.04679      0.00000      
34600   0.49859    0.01580    0.02515    0.00018      0.04575      0.00000      0.00022      0.04680      0.00000      
34700   0.49535    0.01580    0.02515    0.00021      0.04542      0.00000      0.00022      0.04680      0.00000      
34800   0.50870    0.01581    0.02515    0.00025      0.04675      0.00000      0.00022      0.04680      0.00000      
34900   0.49858    0.01580    0.02515    0.00018      0.04574      0.00000      0.00022      0.04679      0.00000      
35000   0.49531    0.01580    0.02515    0.00021      0.04542      0.00000      0.00022      0.04680      0.00000      
35100   0.50874    0.01581    0.02515    0.00025      0.04675      0.00000      0.00022      0.04680      0.00000      
35200   0.49858    0.01581    0.02516    0.00018      0.04574      0.00000      0.00023      0.04679      0.00000      
35300   0.49529    0.01581    0.02515    0.00021      0.04541      0.00000      0.00022      0.04680      0.00000      
35400   0.50866    0.01581    0.02515    0.00025      0.04674      0.00000      0.00022      0.04679      0.00000      
35500   0.49858    0.01581    0.02516    0.00018      0.04574      0.00000      0.00022      0.04679      0.00000      
35600   0.49530    0.01582    0.02516    0.00021      0.04541      0.00000      0.00022      0.04679      0.00000      
35700   0.50870    0.01581    0.02516    0.00025      0.04675      0.00000      0.00022      0.04679      0.00000      
35800   0.49852    0.01581    0.02516    0.00018      0.04574      0.00000      0.00023      0.04679      0.00000      
35900   0.49528    0.01581    0.02516    0.00021      0.04541      0.00000      0.00022      0.04679      0.00000      
36000   0.50864    0.01581    0.02515    0.00025      0.04674      0.00000      0.00022      0.04680      0.00000      
36100   0.49856    0.01581    0.02515    0.00018      0.04574      0.00000      0.00023      0.04679      0.00000      
36200   0.49524    0.01581    0.02515    0.00021      0.04541      0.00000      0.00022      0.04681      0.00000      
36300   0.50871    0.01581    0.02515    0.00025      0.04675      0.00000      0.00022      0.04679      0.00000      
36400   0.49852    0.01581    0.02516    0.00018      0.04574      0.00000      0.00022      0.04679      0.00000      
36500   0.49528    0.01581    0.02516    0.00021      0.04541      0.00000      0.00022      0.04681      0.00000      
36600   0.50864    0.01581    0.02516    0.00025      0.04674      0.00000      0.00022      0.04681      0.00000      
36700   0.49854    0.01581    0.02516    0.00018      0.04574      0.00000      0.00022      0.04680      0.00000      
36800   0.49529    0.01581    0.02516    0.00021      0.04541      0.00000      0.00022      0.04680      0.00000      
36900   0.50863    0.01581    0.02516    0.00025      0.04674      0.00000      0.00022      0.04680      0.00000      
37000   0.49854    0.01580    0.02516    0.00018      0.04574      0.00000      0.00022      0.04680      0.00000      
37100   0.49525    0.01580    0.02516    0.00021      0.04541      0.00000      0.00022      0.04679      0.00000      
37200   0.50863    0.01580    0.02516    0.00025      0.04674      0.00000      0.00022      0.04679      0.00000      
37300   0.49853    0.01579    0.02516    0.00018      0.04574      0.00000      0.00023      0.04679      0.00000      
37400   0.49521    0.01579    0.02516    0.00021      0.04541      0.00000      0.00022      0.04680      0.00000      
37500   0.50858    0.01579    0.02516    0.00025      0.04674      0.00000      0.00022      0.04680      0.00000      
37600   0.49852    0.01580    0.02516    0.00018      0.04574      0.00000      0.00022      0.04679      0.00000      
37700   0.49521    0.01579    0.02516    0.00021      0.04541      0.00000      0.00022      0.04680      0.00000      
37800   0.50853    0.01579    0.02516    0.00025      0.04673      0.00000      0.00022      0.04680      0.00000      
37900   0.49849    0.01580    0.02516    0.00018      0.04574      0.00000      0.00022      0.04679      0.00000      
38000   0.49523    0.01580    0.02516    0.00021      0.04541      0.00000      0.00022      0.04680      0.00000      
38100   0.50852    0.01579    0.02516    0.00025      0.04673      0.00000      0.00022      0.04679      0.00000      
38200   0.49847    0.01579    0.02516    0.00018      0.04573      0.00000      0.00022      0.04679      0.00000      
38300   0.49523    0.01579    0.02516    0.00021      0.04541      0.00000      0.00022      0.04680      0.00000      
38400   0.50851    0.01579    0.02516    0.00025      0.04673      0.00000      0.00022      0.04678      0.00000      
38500   0.49844    0.01580    0.02516    0.00018      0.04573      0.00000      0.00023      0.04679      0.00000      
38600   0.49526    0.01580    0.02516    0.00021      0.04541      0.00000      0.00022      0.04680      0.00000      
38700   0.50853    0.01579    0.02516    0.00025      0.04673      0.00000      0.00022      0.04678      0.00000      
38800   0.49843    0.01579    0.02516    0.00018      0.04573      0.00000      0.00023      0.04679      0.00000      
38900   0.49523    0.01579    0.02516    0.00021      0.04541      0.00000      0.00022      0.04679      0.00000      
39000   0.50854    0.01579    0.02516    0.00025      0.04673      0.00000      0.00022      0.04678      0.00000      
39100   0.49842    0.01579    0.02516    0.00018      0.04573      0.00000      0.00022      0.04679      0.00000      
39200   0.49525    0.01580    0.02516    0.00021      0.04541      0.00000      0.00022      0.04681      0.00000      
39300   0.50858    0.01579    0.02516    0.00025      0.04674      0.00000      0.00022      0.04679      0.00000      
39400   0.49844    0.01580    0.02516    0.00018      0.04573      0.00000      0.00022      0.04678      0.00000      
39500   0.49516    0.01580    0.02516    0.00021      0.04540      0.00000      0.00022      0.04680      0.00000      
39600   0.50862    0.01580    0.02516    0.00025      0.04674      0.00000      0.00022      0.04679      0.00000      
39700   0.49840    0.01579    0.02516    0.00018      0.04573      0.00000      0.00022      0.04679      0.00000      
39800   0.49514    0.01579    0.02516    0.00021      0.04540      0.00000      0.00022      0.04680      0.00000      
39900   0.50854    0.01579    0.02516    0.00025      0.04673      0.00000      0.00022      0.04680      0.00000      
40000   0.49839    0.01578    0.02516    0.00018      0.04573      0.00000      0.00022      0.04679      0.00000      
40100   0.49512    0.01578    0.02516    0.00021      0.04540      0.00000      0.00022      0.04679      0.00000      
40200   0.50857    0.01579    0.02516    0.00025      0.04674      0.00000      0.00022      0.04679      0.00000      
40300   0.49839    0.01579    0.02516    0.00018      0.04573      0.00000      0.00023      0.04678      0.00000      
40400   0.49510    0.01579    0.02516    0.00021      0.04539      0.00000      0.00022      0.04679      0.00000      
40500   0.50847    0.01579    0.02516    0.00025      0.04673      0.00000      0.00022      0.04679      0.00000      
40600   0.49836    0.01579    0.02516    0.00018      0.04572      0.00000      0.00022      0.04678      0.00000      
40700   0.49513    0.01579    0.02516    0.00021      0.04540      0.00000      0.00022      0.04679      0.00000      
40800   0.50852    0.01579    0.02516    0.00025      0.04673      0.00000      0.00022      0.04679      0.00000      
40900   0.49833    0.01579    0.02516    0.00018      0.04572      0.00000      0.00023      0.04679      0.00000      
41000   0.49512    0.01580    0.02516    0.00021      0.04540      0.00000      0.00022      0.04679      0.00000      
41100   0.50848    0.01579    0.02516    0.00025      0.04673      0.00000      0.00022      0.04679      0.00000      
41200   0.49835    0.01580    0.02516    0.00018      0.04572      0.00000      0.00022      0.04679      0.00000      
41300   0.49513    0.01580    0.02517    0.00021      0.04540      0.00000      0.00022      0.04678      0.00000      
41400   0.50851    0.01580    0.02517    0.00025      0.04673      0.00000      0.00022      0.04678      0.00000      
41500   0.49838    0.01581    0.02517    0.00018      0.04572      0.00000      0.00023      0.04678      0.00000      
41600   0.49511    0.01581    0.02517    0.00021      0.04539      0.00000      0.00022      0.04678      0.00000      
41700   0.50854    0.01580    0.02516    0.00025      0.04673      0.00000      0.00022      0.04679      0.00000      
41800   0.49834    0.01580    0.02516    0.00018      0.04572      0.00000      0.00022      0.04678      0.00000      
41900   0.49511    0.01580    0.02516    0.00021      0.04539      0.00000      0.00022      0.04680      0.00000      
42000   0.50851    0.01580    0.02516    0.00025      0.04673      0.00000      0.00022      0.04679      0.00000      
42100   0.49835    0.01581    0.02516    0.00018      0.04572      0.00000      0.00022      0.04678      0.00000      
42200   0.49508    0.01579    0.02516    0.00021      0.04539      0.00000      0.00022      0.04680      0.00000      
42300   0.50848    0.01579    0.02516    0.00025      0.04673      0.00000      0.00022      0.04678      0.00000      
42400   0.49831    0.01579    0.02516    0.00018      0.04572      0.00000      0.00022      0.04678      0.00000      
42500   0.49511    0.01579    0.02516    0.00021      0.04540      0.00000      0.00022      0.04680      0.00000      
42600   0.50850    0.01579    0.02516    0.00025      0.04673      0.00000      0.00022      0.04679      0.00000      
42700   0.49829    0.01579    0.02516    0.00018      0.04572      0.00000      0.00022      0.04678      0.00000      
42800   0.49512    0.01580    0.02516    0.00021      0.04540      0.00000      0.00022      0.04680      0.00000      
42900   0.50852    0.01579    0.02516    0.00025      0.04673      0.00000      0.00022      0.04678      0.00000      
43000   0.49825    0.01579    0.02516    0.00018      0.04571      0.00000      0.00022      0.04677      0.00000      
43100   0.49513    0.01580    0.02516    0.00021      0.04540      0.00000      0.00022      0.04679      0.00000      
43200   0.50856    0.01580    0.02516    0.00025      0.04674      0.00000      0.00022      0.04678      0.00000      
43300   0.49825    0.01580    0.02516    0.00018      0.04571      0.00000      0.00023      0.04678      0.00000      
43400   0.49512    0.01580    0.02517    0.00021      0.04539      0.00000      0.00022      0.04678      0.00000      
43500   0.50854    0.01580    0.02516    0.00025      0.04673      0.00000      0.00022      0.04678      0.00000      
43600   0.49824    0.01580    0.02517    0.00018      0.04571      0.00000      0.00022      0.04678      0.00000      
43700   0.49512    0.01580    0.02516    0.00021      0.04540      0.00000      0.00022      0.04679      0.00000      
43800   0.50853    0.01580    0.02516    0.00025      0.04673      0.00000      0.00022      0.04680      0.00000      
43900   0.49824    0.01580    0.02517    0.00018      0.04571      0.00000      0.00023      0.04678      0.00000      
44000   0.49511    0.01580    0.02517    0.00021      0.04539      0.00000      0.00022      0.04679      0.00000      
44100   0.50851    0.01580    0.02517    0.00025      0.04673      0.00000      0.00022      0.04678      0.00000      
44200   0.49823    0.01580    0.02516    0.00018      0.04571      0.00000      0.00022      0.04678      0.00000      
44300   0.49509    0.01580    0.02516    0.00021      0.04539      0.00000      0.00022      0.04678      0.00000      
44400   0.50846    0.01580    0.02516    0.00025      0.04673      0.00000      0.00022      0.04678      0.00000      
44500   0.49824    0.01580    0.02516    0.00018      0.04571      0.00000      0.00022      0.04677      0.00000      
44600   0.49507    0.01580    0.02516    0.00021      0.04539      0.00000      0.00022      0.04679      0.00000      
44700   0.50850    0.01580    0.02516    0.00025      0.04673      0.00000      0.00022      0.04678      0.00000      
44800   0.49823    0.01579    0.02516    0.00018      0.04571      0.00000      0.00022      0.04678      0.00000      
44900   0.49509    0.01580    0.02516    0.00021      0.04539      0.00000      0.00022      0.04680      0.00000      
45000   0.50849    0.01580    0.02516    0.00025      0.04673      0.00000      0.00022      0.04678      0.00000      
45100   0.49825    0.01580    0.02516    0.00018      0.04571      0.00000      0.00023      0.04678      0.00000      
45200   0.49508    0.01581    0.02516    0.00021      0.04539      0.00000      0.00022      0.04678      0.00000      
45300   0.50850    0.01580    0.02516    0.00025      0.04673      0.00000      0.00022      0.04678      0.00000      
45400   0.49821    0.01580    0.02516    0.00018      0.04571      0.00000      0.00022      0.04677      0.00000      
45500   0.49511    0.01580    0.02516    0.00021      0.04539      0.00000      0.00022      0.04678      0.00000      
45600   0.50853    0.01580    0.02516    0.00025      0.04673      0.00000      0.00022      0.04678      0.00000      
45700   0.49822    0.01581    0.02516    0.00018      0.04571      0.00000      0.00022      0.04678      0.00000      
45800   0.49506    0.01580    0.02516    0.00021      0.04539      0.00000      0.00022      0.04679      0.00000      
45900   0.50850    0.01581    0.02516    0.00025      0.04673      0.00000      0.00022      0.04678      0.00000      
46000   0.49821    0.01581    0.02516    0.00018      0.04571      0.00000      0.00022      0.04677      0.00000      
46100   0.49510    0.01581    0.02516    0.00021      0.04539      0.00000      0.00022      0.04678      0.00000      
46200   0.50847    0.01581    0.02516    0.00025      0.04673      0.00000      0.00022      0.04678      0.00000      
46300   0.49822    0.01581    0.02516    0.00018      0.04571      0.00000      0.00022      0.04678      0.00000      
46400   0.49511    0.01581    0.02516    0.00021      0.04539      0.00000      0.00022      0.04679      0.00000      
46500   0.50854    0.01581    0.02516    0.00025      0.04673      0.00000      0.00022      0.04679      0.00000      
46600   0.49820    0.01580    0.02516    0.00018      0.04571      0.00000      0.00022      0.04678      0.00000      
46700   0.49511    0.01580    0.02516    0.00021      0.04539      0.00000      0.00022      0.04679      0.00000      
46800   0.50853    0.01580    0.02516    0.00025      0.04673      0.00000      0.00022      0.04678      0.00000      
46900   0.49817    0.01580    0.02516    0.00018      0.04570      0.00000      0.00022      0.04679      0.00000      
47000   0.49515    0.01580    0.02515    0.00021      0.04540      0.00000      0.00022      0.04678      0.00000      
47100   0.50848    0.01579    0.02515    0.00025      0.04673      0.00000      0.00022      0.04678      0.00000      
47200   0.49815    0.01580    0.02515    0.00018      0.04570      0.00000      0.00022      0.04679      0.00000      
47300   0.49507    0.01580    0.02515    0.00021      0.04539      0.00000      0.00022      0.04679      0.00000      
47400   0.50852    0.01580    0.02516    0.00025      0.04673      0.00000      0.00022      0.04678      0.00000      
47500   0.49813    0.01581    0.02516    0.00018      0.04570      0.00000      0.00022      0.04678      0.00000      
47600   0.49506    0.01581    0.02516    0.00021      0.04539      0.00000      0.00022      0.04679      0.00000      
47700   0.50852    0.01581    0.02516    0.00025      0.04673      0.00000      0.00022      0.04679      0.00000      
47800   0.49812    0.01581    0.02516    0.00018      0.04570      0.00000      0.00022      0.04677      0.00000      
47900   0.49506    0.01581    0.02516    0.00021      0.04539      0.00000      0.00022      0.04679      0.00000      
48000   0.50846    0.01581    0.02516    0.00025      0.04673      0.00000      0.00022      0.04677      0.00000      
48100   0.49809    0.01580    0.02516    0.00018      0.04570      0.00000      0.00022      0.04677      0.00000      
48200   0.49507    0.01580    0.02516    0.00021      0.04539      0.00000      0.00022      0.04677      0.00000      
48300   0.50848    0.01580    0.02516    0.00025      0.04673      0.00000      0.00022      0.04677      0.00000      
48400   0.49810    0.01580    0.02516    0.00018      0.04570      0.00000      0.00023      0.04676      0.00000      
48500   0.49504    0.01580    0.02516    0.00021      0.04539      0.00000      0.00022      0.04677      0.00000      
48600   0.50846    0.01580    0.02516    0.00025      0.04673      0.00000      0.00022      0.04677      0.00000      
48700   0.49810    0.01581    0.02516    0.00018      0.04570      0.00000      0.00022      0.04677      0.00000      
48800   0.49504    0.01580    0.02516    0.00021      0.04539      0.00000      0.00022      0.04678      0.00000      
48900   0.50849    0.01581    0.02516    0.00025      0.04673      0.00000      0.00022      0.04677      0.00000      
49000   0.49809    0.01581    0.02516    0.00018      0.04569      0.00000      0.00022      0.04677      0.00000      
49100   0.49506    0.01581    0.02516    0.00021      0.04539      0.00000      0.00022      0.04678      0.00000      
49200   0.50840    0.01580    0.02516    0.00025      0.04672      0.00000      0.00022      0.04677      0.00000      
49300   0.49811    0.01581    0.02516    0.00018      0.04570      0.00000      0.00023      0.04675      0.00000      
49400   0.49499    0.01581    0.02516    0.00021      0.04538      0.00000      0.00022      0.04677      0.00000      
49500   0.50841    0.01580    0.02516    0.00025      0.04672      0.00000      0.00022      0.04678      0.00000      
49600   0.49805    0.01580    0.02516    0.00018      0.04569      0.00000      0.00023      0.04676      0.00000      
49700   0.49500    0.01580    0.02516    0.00021      0.04538      0.00000      0.00022      0.04678      0.00000      
49800   0.50848    0.01580    0.02516    0.00025      0.04673      0.00000      0.00022      0.04677      0.00000      
49900   0.49803    0.01580    0.02516    0.00018      0.04569      0.00000      0.00023      0.04677      0.00000      
50000   0.49501    0.01580    0.02516    0.00021      0.04538      0.00000      0.00022      0.04677      0.00000      
50100   0.50842    0.01580    0.02516    0.00025      0.04672      0.00000      0.00022      0.04677      0.00000      
50200   0.49801    0.01580    0.02515    0.00018      0.04569      0.00000      0.00022      0.04676      0.00000      
50300   0.49499    0.01580    0.02516    0.00021      0.04538      0.00000      0.00022      0.04677      0.00000      
50400   0.50844    0.01580    0.02516    0.00025      0.04672      0.00000      0.00022      0.04676      0.00000      
50500   0.49798    0.01580    0.02515    0.00018      0.04568      0.00000      0.00022      0.04676      0.00000      
50600   0.49502    0.01579    0.02515    0.00021      0.04539      0.00000      0.00022      0.04676      0.00000      
50700   0.50839    0.01579    0.02515    0.00025      0.04672      0.00000      0.00022      0.04675      0.00000      
50800   0.49799    0.01579    0.02515    0.00018      0.04569      0.00000      0.00022      0.04675      0.00000      
50900   0.49497    0.01580    0.02515    0.00021      0.04538      0.00000      0.00022      0.04676      0.00000      
51000   0.50838    0.01579    0.02515    0.00025      0.04672      0.00000      0.00022      0.04676      0.00000      
51100   0.49800    0.01579    0.02515    0.00018      0.04569      0.00000      0.00022      0.04675      0.00000      
51200   0.49497    0.01580    0.02515    0.00021      0.04538      0.00000      0.00022      0.04677      0.00000      
51300   0.50847    0.01580    0.02515    0.00025      0.04673      0.00000      0.00022      0.04676      0.00000      
51400   0.49803    0.01580    0.02515    0.00018      0.04569      0.00000      0.00023      0.04675      0.00000      
51500   0.49496    0.01580    0.02516    0.00021      0.04538      0.00000      0.00022      0.04676      0.00000      
51600   0.50848    0.01580    0.02516    0.00025      0.04673      0.00000      0.00022      0.04676      0.00000      
51700   0.49799    0.01581    0.02516    0.00018      0.04569      0.00000      0.00022      0.04676      0.00000      
51800   0.49495    0.01580    0.02516    0.00021      0.04538      0.00000      0.00022      0.04677      0.00000      
51900   0.50840    0.01579    0.02516    0.00025      0.04672      0.00000      0.00022      0.04676      0.00000      
52000   0.49798    0.01580    0.02516    0.00018      0.04568      0.00000      0.00023      0.04676      0.00000      
52100   0.49489    0.01580    0.02516    0.00021      0.04537      0.00000      0.00022      0.04676      0.00000      
52200   0.50844    0.01580    0.02516    0.00025      0.04672      0.00000      0.00022      0.04676      0.00000      
52300   0.49798    0.01580    0.02516    0.00018      0.04568      0.00000      0.00023      0.04675      0.00000      
52400   0.49493    0.01580    0.02516    0.00021      0.04538      0.00000      0.00022      0.04676      0.00000      
52500   0.50849    0.01580    0.02516    0.00025      0.04673      0.00000      0.00022      0.04676      0.00000      
52600   0.49798    0.01580    0.02516    0.00018      0.04568      0.00000      0.00022      0.04675      0.00000      
52700   0.49493    0.01580    0.02516    0.00021      0.04538      0.00000      0.00022      0.04676      0.00000      
52800   0.50842    0.01580    0.02516    0.00025      0.04672      0.00000      0.00022      0.04674      0.00000      
52900   0.49794    0.01580    0.02516    0.00018      0.04568      0.00000      0.00022      0.04676      0.00000      
53000   0.49489    0.01580    0.02516    0.00021      0.04537      0.00000      0.00022      0.04677      0.00000      
53100   0.50844    0.01580    0.02515    0.00025      0.04672      0.00000      0.00022      0.04677      0.00000      
53200   0.49795    0.01579    0.02515    0.00018      0.04568      0.00000      0.00023      0.04677      0.00000      
53300   0.49486    0.01579    0.02515    0.00021      0.04537      0.00000      0.00022      0.04677      0.00000      
53400   0.50845    0.01580    0.02516    0.00025      0.04673      0.00000      0.00022      0.04677      0.00000      
53500   0.49795    0.01579    0.02515    0.00018      0.04568      0.00000      0.00023      0.04675      0.00000      
53600   0.49486    0.01579    0.02515    0.00021      0.04537      0.00000      0.00022      0.04676      0.00000      
53700   0.50842    0.01579    0.02515    0.00025      0.04672      0.00000      0.00022      0.04676      0.00000      
53800   0.49797    0.01579    0.02515    0.00018      0.04569      0.00000      0.00023      0.04675      0.00000      
53900   0.49485    0.01579    0.02515    0.00021      0.04537      0.00000      0.00022      0.04676      0.00000      
54000   0.50844    0.01579    0.02515    0.00025      0.04673      0.00000      0.00022      0.04675      0.00000      
54100   0.49797    0.01579    0.02515    0.00018      0.04568      0.00000      0.00023      0.04675      0.00000      
54200   0.49482    0.01579    0.02515    0.00021      0.04537      0.00000      0.00022      0.04675      0.00000      
54300   0.50842    0.01579    0.02515    0.00025      0.04672      0.00000      0.00022      0.04677      0.00000      
54400   0.49796    0.01579    0.02515    0.00018      0.04568      0.00000      0.00023      0.04676      0.00000      
54500   0.49479    0.01579    0.02515    0.00021      0.04536      0.00000      0.00022      0.04677      0.00000      
54600   0.50840    0.01579    0.02515    0.00025      0.04672      0.00000      0.00022      0.04677      0.00000      
54700   0.49796    0.01579    0.02515    0.00018      0.04568      0.00000      0.00022      0.04676      0.00000      
54800   0.49477    0.01580    0.02515    0.00021      0.04536      0.00000      0.00022      0.04676      0.00000      
54900   0.50844    0.01580    0.02515    0.00025      0.04672      0.00000      0.00022      0.04676      0.00000      
55000   0.49794    0.01580    0.02515    0.00018      0.04568      0.00000      0.00022      0.04676      0.00000      
55100   0.49480    0.01580    0.02515    0.00021      0.04536      0.00000      0.00022      0.04676      0.00000      
55200   0.50836    0.01580    0.02515    0.00025      0.04672      0.00000      0.00022      0.04675      0.00000      
55300   0.49791    0.01580    0.02515    0.00018      0.04568      0.00000      0.00023      0.04675      0.00000      
[...]
383800  0.49287    0.01583    0.02484    0.00018      0.04520      0.00000      0.00022      0.04633      0.00000      
383900  0.49009    0.01583    0.02483    0.00020      0.04492      0.00000      0.00022      0.04634      0.00000      
384000  0.50494    0.01583    0.02483    0.00024      0.04640      0.00000      0.00022      0.04633      0.00000      
384100  0.49288    0.01583    0.02483    0.00018      0.04520      0.00000      0.00022      0.04632      0.00000      
384200  0.49011    0.01583    0.02483    0.00020      0.04492      0.00000      0.00022      0.04633      0.00000      
384300  0.50492    0.01583    0.02483    0.00024      0.04640      0.00000      0.00022      0.04632      0.00000      
384400  0.49287    0.01582    0.02484    0.00018      0.04520      0.00000      0.00022      0.04633      0.00000      
384500  0.49014    0.01582    0.02483    0.00020      0.04493      0.00000      0.00022      0.04633      0.00000      
384600  0.50497    0.01582    0.02483    0.00024      0.04641      0.00000      0.00022      0.04633      0.00000      
384700  0.49286    0.01582    0.02483    0.00018      0.04520      0.00000      0.00022      0.04632      0.00000      
384800  0.49017    0.01582    0.02484    0.00020      0.04493      0.00000      0.00022      0.04632      0.00000      
384900  0.50490    0.01582    0.02484    0.00024      0.04640      0.00000      0.00022      0.04633      0.00000      
385000  0.49284    0.01582    0.02484    0.00018      0.04520      0.00000      0.00022      0.04632      0.00000      
385100  0.49012    0.01582    0.02484    0.00020      0.04492      0.00000      0.00022      0.04634      0.00000      
385200  0.50496    0.01582    0.02484    0.00024      0.04641      0.00000      0.00022      0.04633      0.00000      
385300  0.49283    0.01581    0.02484    0.00018      0.04520      0.00000      0.00022      0.04633      0.00000      
385400  0.49011    0.01581    0.02484    0.00020      0.04492      0.00000      0.00022      0.04633      0.00000      
385500  0.50491    0.01581    0.02484    0.00024      0.04640      0.00000      0.00022      0.04633      0.00000      
385600  0.49281    0.01580    0.02484    0.00018      0.04520      0.00000      0.00022      0.04632      0.00000      
385700  0.49012    0.01581    0.02484    0.00020      0.04493      0.00000      0.00022      0.04632      0.00000      
385800  0.50492    0.01581    0.02483    0.00024      0.04640      0.00000      0.00022      0.04633      0.00000      
385900  0.49284    0.01581    0.02483    0.00018      0.04520      0.00000      0.00022      0.04632      0.00000      
386000  0.49011    0.01581    0.02484    0.00020      0.04493      0.00000      0.00022      0.04633      0.00000      
386100  0.50496    0.01581    0.02484    0.00024      0.04641      0.00000      0.00022      0.04634      0.00000      
386200  0.49281    0.01582    0.02484    0.00018      0.04520      0.00000      0.00022      0.04633      0.00000      
386300  0.49014    0.01582    0.02483    0.00020      0.04493      0.00000      0.00022      0.04633      0.00000      
386400  0.50490    0.01582    0.02483    0.00024      0.04640      0.00000      0.00022      0.04632      0.00000      
386500  0.49281    0.01582    0.02484    0.00018      0.04520      0.00000      0.00022      0.04632      0.00000      
386600  0.49008    0.01582    0.02483    0.00020      0.04492      0.00000      0.00022      0.04633      0.00000      
386700  0.50493    0.01582    0.02483    0.00024      0.04640      0.00000      0.00022      0.04632      0.00000      
386800  0.49281    0.01582    0.02483    0.00018      0.04520      0.00000      0.00022      0.04632      0.00000      
386900  0.49006    0.01582    0.02483    0.00020      0.04492      0.00000      0.00022      0.04632      0.00000      
387000  0.50490    0.01582    0.02483    0.00024      0.04640      0.00000      0.00022      0.04631      0.00000      
387100  0.49282    0.01583    0.02484    0.00018      0.04520      0.00000      0.00022      0.04631      0.00000      
387200  0.49009    0.01582    0.02483    0.00020      0.04492      0.00000      0.00022      0.04632      0.00000      
387300  0.50484    0.01582    0.02483    0.00024      0.04639      0.00000      0.00022      0.04633      0.00000      
387400  0.49279    0.01582    0.02483    0.00018      0.04520      0.00000      0.00022      0.04632      0.00000      
387500  0.49008    0.01582    0.02483    0.00020      0.04492      0.00000      0.00022      0.04633      0.00000      
387600  0.50487    0.01582    0.02483    0.00024      0.04640      0.00000      0.00022      0.04632      0.00000      
387700  0.49279    0.01582    0.02484    0.00018      0.04520      0.00000      0.00022      0.04631      0.00000      
387800  0.49006    0.01582    0.02484    0.00020      0.04492      0.00000      0.00022      0.04632      0.00000      
387900  0.50488    0.01582    0.02483    0.00024      0.04640      0.00000      0.00022      0.04631      0.00000      
388000  0.49278    0.01581    0.02483    0.00018      0.04520      0.00000      0.00022      0.04630      0.00000      
388100  0.49005    0.01582    0.02482    0.00020      0.04492      0.00000      0.00022      0.04631      0.00000      
388200  0.50488    0.01581    0.02482    0.00024      0.04640      0.00000      0.00022      0.04631      0.00000      
388300  0.49278    0.01581    0.02482    0.00018      0.04520      0.00000      0.00022      0.04631      0.00000      
388400  0.49009    0.01581    0.02483    0.00020      0.04492      0.00000      0.00022      0.04631      0.00000      
388500  0.50483    0.01581    0.02482    0.00024      0.04640      0.00000      0.00022      0.04631      0.00000      
388600  0.49277    0.01581    0.02483    0.00018      0.04520      0.00000      0.00022      0.04631      0.00000      
388700  0.49012    0.01581    0.02483    0.00020      0.04493      0.00000      0.00022      0.04632      0.00000      
388800  0.50489    0.01581    0.02483    0.00024      0.04640      0.00000      0.00022      0.04633      0.00000      
388900  0.49276    0.01581    0.02483    0.00018      0.04519      0.00000      0.00022      0.04631      0.00000      
389000  0.49010    0.01582    0.02484    0.00020      0.04492      0.00000      0.00022      0.04631      0.00000      
389100  0.50487    0.01582    0.02483    0.00024      0.04640      0.00000      0.00022      0.04632      0.00000      
389200  0.49277    0.01582    0.02483    0.00018      0.04519      0.00000      0.00022      0.04632      0.00000      
389300  0.49010    0.01582    0.02483    0.00020      0.04493      0.00000      0.00022      0.04631      0.00000      
389400  0.50486    0.01582    0.02482    0.00024      0.04640      0.00000      0.00022      0.04631      0.00000      
389500  0.49277    0.01582    0.02483    0.00018      0.04519      0.00000      0.00022      0.04631      0.00000      
389600  0.49006    0.01582    0.02483    0.00020      0.04492      0.00000      0.00022      0.04632      0.00000      
389700  0.50485    0.01582    0.02483    0.00024      0.04640      0.00000      0.00022      0.04631      0.00000      
389800  0.49277    0.01582    0.02483    0.00018      0.04519      0.00000      0.00022      0.04631      0.00000      
389900  0.49007    0.01582    0.02483    0.00020      0.04492      0.00000      0.00022      0.04633      0.00000      
390000  0.50491    0.01582    0.02483    0.00024      0.04640      0.00000      0.00022      0.04633      0.00000      
390100  0.49275    0.01582    0.02483    0.00018      0.04519      0.00000      0.00022      0.04630      0.00000      
390200  0.49006    0.01582    0.02483    0.00020      0.04492      0.00000      0.00022      0.04632      0.00000      
390300  0.50492    0.01582    0.02483    0.00024      0.04640      0.00000      0.00022      0.04631      0.00000      
390400  0.49274    0.01582    0.02482    0.00018      0.04519      0.00000      0.00022      0.04631      0.00000      
390500  0.49008    0.01582    0.02482    0.00020      0.04492      0.00000      0.00022      0.04632      0.00000      
390600  0.50490    0.01582    0.02481    0.00024      0.04640      0.00000      0.00022      0.04632      0.00000      
390700  0.49276    0.01582    0.02481    0.00018      0.04519      0.00000      0.00022      0.04631      0.00000      
390800  0.49006    0.01583    0.02481    0.00020      0.04492      0.00000      0.00022      0.04633      0.00000      
390900  0.50497    0.01582    0.02482    0.00024      0.04641      0.00000      0.00022      0.04632      0.00000      
391000  0.49270    0.01582    0.02482    0.00018      0.04519      0.00000      0.00022      0.04631      0.00000      
391100  0.49004    0.01581    0.02482    0.00020      0.04492      0.00000      0.00022      0.04632      0.00000      
391200  0.50488    0.01582    0.02482    0.00024      0.04640      0.00000      0.00022      0.04631      0.00000      
391300  0.49274    0.01582    0.02482    0.00018      0.04519      0.00000      0.00022      0.04631      0.00000      
391400  0.49003    0.01582    0.02482    0.00020      0.04492      0.00000      0.00022      0.04632      0.00000      
391500  0.50494    0.01582    0.02482    0.00024      0.04641      0.00000      0.00022      0.04632      0.00000      
391600  0.49274    0.01582    0.02482    0.00018      0.04519      0.00000      0.00022      0.04631      0.00000      
391700  0.49003    0.01583    0.02482    0.00020      0.04492      0.00000      0.00022      0.04632      0.00000      
391800  0.50491    0.01582    0.02481    0.00024      0.04640      0.00000      0.00022      0.04633      0.00000      
391900  0.49272    0.01582    0.02482    0.00018      0.04519      0.00000      0.00022      0.04632      0.00000      
392000  0.49001    0.01582    0.02482    0.00020      0.04492      0.00000      0.00022      0.04633      0.00000      
392100  0.50500    0.01582    0.02481    0.00024      0.04641      0.00000      0.00022      0.04631      0.00000      
392200  0.49273    0.01582    0.02481    0.00018      0.04519      0.00000      0.00022      0.04630      0.00000      
392300  0.48999    0.01582    0.02481    0.00020      0.04492      0.00000      0.00022      0.04632      0.00000      
392400  0.50494    0.01582    0.02481    0.00024      0.04641      0.00000      0.00022      0.04631      0.00000      
392500  0.49272    0.01582    0.02481    0.00018      0.04519      0.00000      0.00022      0.04632      0.00000      
392600  0.49003    0.01582    0.02481    0.00020      0.04492      0.00000      0.00022      0.04632      0.00000      
392700  0.50494    0.01582    0.02480    0.00024      0.04641      0.00000      0.00022      0.04632      0.00000      
392800  0.49274    0.01582    0.02481    0.00018      0.04519      0.00000      0.00022      0.04631      0.00000      
392900  0.48997    0.01582    0.02480    0.00020      0.04491      0.00000      0.00022      0.04632      0.00000      
393000  0.50491    0.01582    0.02480    0.00024      0.04640      0.00000      0.00022      0.04632      0.00000      
393100  0.49272    0.01582    0.02480    0.00018      0.04519      0.00000      0.00022      0.04631      0.00000      
393200  0.48995    0.01582    0.02479    0.00020      0.04491      0.00000      0.00022      0.04632      0.00000      
393300  0.50496    0.01582    0.02479    0.00024      0.04641      0.00000      0.00022      0.04632      0.00000      
393400  0.49271    0.01582    0.02480    0.00018      0.04519      0.00000      0.00022      0.04632      0.00000      
393500  0.48993    0.01582    0.02479    0.00020      0.04491      0.00000      0.00022      0.04631      0.00000      
393600  0.50491    0.01582    0.02479    0.00024      0.04641      0.00000      0.00022      0.04632      0.00000      
393700  0.49271    0.01582    0.02479    0.00018      0.04519      0.00000      0.00022      0.04631      0.00000      
393800  0.48994    0.01582    0.02479    0.00020      0.04491      0.00000      0.00022      0.04632      0.00000      
393900  0.50498    0.01582    0.02479    0.00024      0.04641      0.00000      0.00022      0.04631      0.00000      
394000  0.49270    0.01582    0.02479    0.00018      0.04519      0.00000      0.00022      0.04630      0.00000      
394100  0.48996    0.01582    0.02479    0.00020      0.04492      0.00000      0.00022      0.04631      0.00000      
394200  0.50489    0.01582    0.02479    0.00024      0.04640      0.00000      0.00022      0.04632      0.00000      
394300  0.49269    0.01582    0.02479    0.00018      0.04519      0.00000      0.00022      0.04630      0.00000      
394400  0.48994    0.01582    0.02479    0.00020      0.04491      0.00000      0.00022      0.04631      0.00000      
394500  0.50492    0.01582    0.02479    0.00024      0.04641      0.00000      0.00022      0.04631      0.00000      
394600  0.49268    0.01582    0.02479    0.00018      0.04519      0.00000      0.00022      0.04630      0.00000      
394700  0.48997    0.01582    0.02479    0.00020      0.04491      0.00000      0.00022      0.04631      0.00000      
394800  0.50491    0.01581    0.02479    0.00024      0.04641      0.00000      0.00022      0.04630      0.00000      
394900  0.49268    0.01581    0.02479    0.00018      0.04519      0.00000      0.00022      0.04630      0.00000      
395000  0.48992    0.01581    0.02479    0.00020      0.04491      0.00000      0.00022      0.04630      0.00000      
395100  0.50493    0.01581    0.02479    0.00024      0.04641      0.00000      0.00022      0.04630      0.00000      
395200  0.49267    0.01581    0.02479    0.00018      0.04519      0.00000      0.00022      0.04630      0.00000      
395300  0.48989    0.01581    0.02479    0.00020      0.04491      0.00000      0.00022      0.04631      0.00000      
395400  0.50490    0.01581    0.02479    0.00024      0.04641      0.00000      0.00022      0.04632      0.00000      
395500  0.49271    0.01581    0.02479    0.00018      0.04519      0.00000      0.00022      0.04630      0.00000      
395600  0.48986    0.01582    0.02479    0.00020      0.04490      0.00000      0.00022      0.04631      0.00000      
395700  0.50488    0.01581    0.02479    0.00024      0.04640      0.00000      0.00022      0.04631      0.00000      
395800  0.49272    0.01582    0.02479    0.00018      0.04519      0.00000      0.00022      0.04631      0.00000      
395900  0.48986    0.01582    0.02479    0.00020      0.04490      0.00000      0.00022      0.04632      0.00000      
396000  0.50490    0.01581    0.02479    0.00024      0.04640      0.00000      0.00022      0.04631      0.00000      
396100  0.49270    0.01582    0.02479    0.00018      0.04519      0.00000      0.00022      0.04630      0.00000      
396200  0.48986    0.01582    0.02479    0.00020      0.04491      0.00000      0.00022      0.04632      0.00000      
396300  0.50490    0.01582    0.02479    0.00024      0.04641      0.00000      0.00022      0.04631      0.00000      
396400  0.49268    0.01582    0.02479    0.00018      0.04519      0.00000      0.00022      0.04631      0.00000      
396500  0.48986    0.01582    0.02479    0.00020      0.04491      0.00000      0.00022      0.04631      0.00000      
396600  0.50488    0.01582    0.02479    0.00024      0.04640      0.00000      0.00022      0.04631      0.00000      
396700  0.49270    0.01582    0.02479    0.00018      0.04519      0.00000      0.00022      0.04630      0.00000      
396800  0.48985    0.01582    0.02479    0.00020      0.04490      0.00000      0.00022      0.04631      0.00000      
396900  0.50490    0.01582    0.02479    0.00024      0.04640      0.00000      0.00022      0.04630      0.00000      
397000  0.49270    0.01582    0.02479    0.00018      0.04519      0.00000      0.00022      0.04630      0.00000      
397100  0.48987    0.01582    0.02479    0.00020      0.04491      0.00000      0.00022      0.04631      0.00000      
397200  0.50487    0.01582    0.02478    0.00024      0.04640      0.00000      0.00022      0.04632      0.00000      
397300  0.49270    0.01581    0.02478    0.00018      0.04519      0.00000      0.00022      0.04631      0.00000      
397400  0.48986    0.01582    0.02478    0.00020      0.04491      0.00000      0.00022      0.04632      0.00000      
397500  0.50493    0.01582    0.02478    0.00024      0.04641      0.00000      0.00022      0.04632      0.00000      
397600  0.49270    0.01582    0.02478    0.00018      0.04519      0.00000      0.00022      0.04631      0.00000      
397700  0.48989    0.01582    0.02477    0.00020      0.04491      0.00000      0.00022      0.04631      0.00000      
397800  0.50493    0.01581    0.02477    0.00024      0.04641      0.00000      0.00022      0.04631      0.00000      
397900  0.49266    0.01581    0.02477    0.00018      0.04519      0.00000      0.00022      0.04630      0.00000      
398000  0.48985    0.01581    0.02477    0.00020      0.04491      0.00000      0.00022      0.04631      0.00000      
398100  0.50488    0.01581    0.02477    0.00024      0.04641      0.00000      0.00022      0.04632      0.00000      
398200  0.49270    0.01582    0.02478    0.00018      0.04519      0.00000      0.00022      0.04631      0.00000      
398300  0.48983    0.01582    0.02477    0.00020      0.04490      0.00000      0.00022      0.04631      0.00000      
398400  0.50482    0.01582    0.02477    0.00024      0.04640      0.00000      0.00022      0.04632      0.00000      
398500  0.49272    0.01582    0.02477    0.00018      0.04520      0.00000      0.00022      0.04631      0.00000      
398600  0.48985    0.01582    0.02477    0.00020      0.04491      0.00000      0.00022      0.04632      0.00000      
398700  0.50481    0.01582    0.02477    0.00024      0.04640      0.00000      0.00022      0.04631      0.00000      
398800  0.49270    0.01582    0.02477    0.00018      0.04519      0.00000      0.00022      0.04631      0.00000      
398900  0.48985    0.01582    0.02478    0.00020      0.04490      0.00000      0.00022      0.04632      0.00000      
399000  0.50480    0.01581    0.02477    0.00024      0.04640      0.00000      0.00022      0.04631      0.00000      
399100  0.49268    0.01581    0.02477    0.00018      0.04519      0.00000      0.00022      0.04631      0.00000      
399200  0.48982    0.01582    0.02477    0.00020      0.04490      0.00000      0.00022      0.04631      0.00000      
399300  0.50476    0.01582    0.02477    0.00024      0.04639      0.00000      0.00022      0.04630      0.00000      
399400  0.49271    0.01582    0.02477    0.00018      0.04519      0.00000      0.00022      0.04631      0.00000      
399500  0.48981    0.01581    0.02477    0.00020      0.04490      0.00000      0.00022      0.04632      0.00000      
399600  0.50483    0.01581    0.02477    0.00024      0.04640      0.00000      0.00022      0.04633      0.00000      
399700  0.49269    0.01581    0.02476    0.00018      0.04519      0.00000      0.00022      0.04631      0.00000      
399800  0.48979    0.01581    0.02476    0.00020      0.04490      0.00000      0.00022      0.04632      0.00000      
399900  0.50484    0.01581    0.02476    0.00024      0.04640      0.00000      0.00022      0.04631      0.00000      
400000  0.49270    0.01581    0.02476    0.00018      0.04520      0.00000      0.00022      0.04631      0.00000      

---------------------------------------------------------------
Time used for training = 7393.060059 s.
---------------------------------------------------------------


---------------------------------------------------------------
Finished running nep.
---------------------------------------------------------------

