60
energy=-62182.82624215968 config_type=nep3xyz Lattice="25.0 0.0 0.0 0.0 25.0 0.0 0.0 0.0 25.0" Properties=species:S:1:pos:R:3:force:R:3
C 13.74147384 11.89484967 15.90732695 0.046357684504839576 -1.2212869886376974 -2.478724771112483
C 12.49586283 12.65890140 16.05387593 0.6643986452383415 -1.897728300937439 0.8629768670590086
C 11.37540529 11.76801062 15.81065685 -0.40779879182903517 -1.3542825486058365 -2.0980602859401967
C 11.91049007 10.51574354 15.24507484 1.6577262763967955 -0.20062735948237578 1.7533913628738231
C 13.40209411 10.52769677 15.35530276 -1.5947317472492661 1.4971171751976218 -0.026304273401762144
C 9.37529620 13.86277554 13.67490688 -0.6840297461414758 -3.035755440258659 -1.8527554386798384
C 9.03944765 12.49212177 13.17670902 -0.012716345268437882 -0.8067454172235657 -1.38411374383637
C 9.52146734 11.48758825 14.08502141 0.5322624251552537 0.5563077604349665 0.8653672797939478
C 10.20711040 12.18464398 15.15792172 0.6495368031652725 2.0014964097604686 0.3566433110877981
C 10.14928451 13.62528443 14.85165369 -0.45251598413627797 0.30875668453502675 0.5905956636842385
C 10.16245294 9.96091172 12.30896619 -1.169732420516805 0.9130369237157051 -2.699172075272207
C 11.39005861 9.23909639 11.96296782 -0.8238027386734729 -0.10359760369188921 1.3075936709274487
C 12.05191575 9.13992755 13.22604385 1.2580157528329736 -0.30783344881649644 0.4033999337869633
C 11.27745861 9.76764209 14.28148979 -0.2926104808057183 0.3913407744804412 -0.19136425266789633
C 10.05086955 10.26853314 13.67911656 0.910820593352175 -0.15457340062318503 0.21948297812898976
C 14.11631430 9.42552791 12.05297133 0.2620080898021554 -1.0274063588084188 -2.763590585110783
C 15.17744503 10.26409302 12.29815925 3.117525538829335 1.9421052251925648 2.405352719917893
C 15.19300839 10.60691984 13.73980582 0.8672248793233801 -0.19287920613524778 -1.8559104810048035
C 14.12739873 9.93094343 14.31678608 -1.7331776400097159 -0.28355231727947217 1.4555643325266276
C 13.44990024 9.22053010 13.24506930 -2.1193469434083894 -0.6062908706108713 1.8598837163866169
C 15.88891644 12.90609637 13.17305091 -0.003134030655346605 1.0398914035963875 0.6306123977835358
C 15.39045279 14.22259550 13.68605674 0.24522033676766197 -1.8827513275900272 -2.876260746898352
C 14.64991196 13.91270078 14.85993182 0.5162115109931367 1.1901975848114337 0.5154369516896121
C 14.81981568 12.51811256 15.24197769 -1.412084170735536 0.4865820168557262 -0.5851348309760395
C 15.47916715 11.88491800 14.10455269 1.069904366357049 1.0955598283216668 1.511796635974718
C 12.99204492 15.68122774 14.27580802 0.48529590716382504 -0.866047875894654 -2.762017487522029
C 11.55720021 15.52422156 14.23695038 -1.5202383612696835 0.018198656388545672 -2.2752860068183867
C 11.18841869 14.49160830 15.15762868 0.6859693087367794 -0.3309778775412849 0.23594545472542602
C 12.44227082 13.98029660 15.74349826 -2.3207777389460245 0.4344894834438931 -0.13551991321858706
C 13.49992570 14.65596128 15.10694259 1.3742051959330892 -0.6231378487055402 1.7423794566115458
C 11.52475389 15.81362880 11.70390216 0.7047615351123147 -0.2314612495343616 1.19929645169705
C 10.85085513 15.09169555 10.63793761 1.1260549365300703 -1.3282356881370714 -0.3907493333507729
C 9.75866698 14.42479119 11.24895299 -0.7757107150370828 -0.30240237423628646 -0.057616305155644955
C 9.69448489 14.75365163 12.65864418 1.2547901624932394 0.6125108508926875 1.5917388463261466
C 10.83408688 15.57760857 12.96373243 0.7808266672232768 0.9760031727513212 0.7722498839174662
C 9.43050951 13.15121738 10.82206596 0.2625987546973835 -1.2266943347018715 -0.7830499032321567
C 10.18398760 12.45006670 9.78495961 0.918396048753058 0.7048760530327038 -0.1036975396997049
C 10.37225355 11.05247892 10.17138138 -0.5185053771957584 1.5595466383813983 -1.6288782017076786
C 9.64571773 10.90243853 11.37055521 0.6684092002710444 -2.3802881108151057 1.8125424096449423
C 9.09388471 12.14031099 11.78187511 -0.5758406907811161 1.2432950465956394 2.3939774431920577
C 11.53193962 10.39316154 9.84910332 0.8887611789178934 -2.3457498589399535 0.23067283545673692
C 12.67346352 10.97887208 9.17974197 -1.206587947935269 2.31235708401085 0.605396077164132
C 13.82782429 10.49721371 9.88125607 2.616467755589571 1.1078570772682754 -0.8556550719760402
C 13.50990188 9.46623036 10.78483847 -1.1530179890104815 -0.41580006173288836 1.2409691643122764
C 12.09078879 9.34020760 10.76204056 -2.1275807246223377 1.6998417503401546 0.22767850611406132
C 14.93243330 11.35700891 10.17681736 -1.05100026937528 -1.5176212257278459 -0.10664304711182328
C 14.76886002 12.71791584 9.82109366 -0.17150344394514427 0.8970851418414983 0.3291470021190563
C 15.43103629 13.46957273 10.85242397 -0.41208350576991387 2.122272671333376 0.16889671913410698
C 15.97084511 12.59148229 11.82623408 0.27263944697904247 -0.6165138825596832 1.4747187976037077
C 15.68876995 11.22146130 11.46622329 -1.9752621389525191 0.4871169408132701 -3.4217401136858205
C 14.91720322 14.72776376 11.27700830 -0.2177664001909203 -1.2580142334026294 -0.2316714411593088
C 13.65281891 15.16539731 10.73524177 1.4226881285550097 1.289917453771629 1.032729338603494
C 12.91117783 15.86138804 11.78876510 -0.36235613851676574 -0.42953195750385753 -1.2777372860916685
C 13.64476469 15.73050066 13.01354066 -0.47108236361483147 1.4107329944015734 -0.4297397654603803
C 14.87314704 15.07149155 12.66558382 0.5140760149618859 -0.7435794159737462 2.688666657845281
C 13.07856344 14.47023357 9.73341025 -2.4342260688983135 -0.14671695648521232 -0.5221237667393184
C 13.56691915 13.23814927 9.27808641 2.7431405938758995 -1.171153916012005 -0.5741538386633874
C 12.52801358 12.37425417 8.87542743 -0.6983306916721196 -1.153347368533632 0.8056093350099253
C 11.26399117 13.11690658 9.16693548 -0.4567380140690305 -3.6787438383603948 -0.22521215670411962
C 11.61780476 14.30220511 9.71062469 0.6282203072206407 5.539208913863514 1.296485857393872
