60
Time=36000.00000003 pbc="T T T" uncertainty=0.01262722 Lattice="25.00000000 0.00000000 0.00000000 0.00000000 25.00000000 0.00000000 0.00000000 0.00000000 25.00000000" energy=-87.80032527 virial="9.93581478 -3.44577719 -5.31207882 -3.44577719 5.92330691 4.11432015 -5.31207882 4.11432015 -6.25851244" stress="0.00080135 -0.00022053 -0.00033997 -0.00022053 0.00054454 0.00026332 -0.00033997 0.00026332 -0.00023509" Properties=species:S:1:pos:R:3
C 14.52730788 14.61800412 10.60310733
C 13.61407496 14.11425462 9.61491552
C 12.42238284 14.78414602 9.87203212
C 12.55481213 15.67877791 10.91191020
C 13.93635512 15.60984695 11.38200210
C 10.21040710 11.97924748 9.86123559
C 9.49492182 12.98652168 10.67210652
C 10.15887748 14.22824434 10.51571515
C 11.29170179 14.00999223 9.62613938
C 11.33378756 12.62625978 9.24464058
C 9.71339194 14.72546030 12.84965027
C 10.65058345 15.16188410 13.84681260
C 11.74055599 15.78337129 13.20479796
C 11.48991534 15.77290347 11.74210655
C 10.27991155 15.09449049 11.57603273
C 13.28661077 14.98945278 14.90279916
C 14.55575606 14.32695295 14.78325801
C 15.10835350 14.76452759 13.43144272
C 14.05924417 15.60884711 12.77755893
C 13.01573710 15.73210234 13.71946572
C 15.94861989 12.46460728 13.07336900
C 15.80920261 11.65067167 11.88910901
C 15.52028563 12.40775309 10.78394107
C 15.47763588 13.80643279 11.19988120
C 15.86036090 13.89490398 12.61474443
C 14.02601356 10.63073153 9.93305335
C 12.68981576 10.70825158 9.47631621
C 12.45522589 12.08996383 9.06604652
C 13.67999510 12.82691459 9.15255701
C 14.61467101 11.91187070 9.79182991
C 11.97449875 9.25491574 11.37120363
C 10.86842236 9.42225091 12.26211210
C 9.90631575 10.36627132 11.59726406
C 10.46951705 10.73833341 10.40737663
C 11.69566083 10.04627063 10.18717521
C 9.22875475 11.22839384 12.31703551
C 9.52233974 11.27391930 13.71499417
C 9.43664303 12.69260557 14.20607198
C 9.08200738 13.46046705 13.00316712
C 9.01989613 12.58380598 11.86272814
C 10.16628604 13.16308474 15.27853008
C 11.13292363 12.27709665 15.85182512
C 12.39632636 12.97051334 16.08762635
C 12.22554152 14.29186064 15.52872897
C 10.86855410 14.42914641 15.01808935
C 13.65284167 12.36511894 15.84446161
C 13.73650435 10.95676393 15.50439902
C 14.79812941 10.80828838 14.51847398
C 15.46632461 12.13197408 14.27821520
C 14.73797425 12.98775561 15.13795206
C 14.78901445 9.92464351 13.44134672
C 13.49400585 9.19327749 13.22074891
C 13.31717354 9.19324012 11.75788502
C 14.34487846 9.91645170 11.05725565
C 15.17403406 10.48418711 12.12241148
C 12.48450293 9.43277014 14.12437260
C 12.53818578 10.26331890 15.29472330
C 11.27555153 10.94454512 15.48906622
C 10.39901489 10.45583512 14.38712472
C 11.11063958 9.42237443 13.59223662
