60
energy=-28.98359243818 config_type=nep3xyz Lattice="25.0 0.0 0.0 0.0 25.0 0.0 0.0 0.0 25.0" Properties=species:S:1:pos:R:3:force:R:3
C 13.74147384 11.89484967 15.90732695 0.0443671851007901 -1.2721796915656978 -2.380931760731759
C 12.49586283 12.65890140 16.05387593 0.6794097409759259 -1.9876823393016938 0.8233933623596119
C 11.37540529 11.76801062 15.81065685 -0.4565696030521008 -1.4590629595634055 -1.8924856463276807
C 11.91049007 10.51574354 15.24507484 1.7440622510842383 -0.05936965197005904 1.7046225618070787
C 13.40209411 10.52769677 15.35530276 -1.6190361329459637 1.4345082207464857 0.14821373491164416
C 9.37529620 13.86277554 13.67490688 -0.8338339049117824 -3.05126520387635 -1.8014863331300661
C 9.03944765 12.49212177 13.17670902 -0.048759245844372745 -0.7721970972875457 -1.3548192161549448
C 9.52146734 11.48758825 14.08502141 0.4268623443207922 0.5718577748138308 0.9385445934945916
C 10.20711040 12.18464398 15.15792172 0.6110502620558919 2.041508367010468 0.34775979607987123
C 10.14928451 13.62528443 14.85165369 -0.4955754881071272 0.2526315094990631 0.6031022660387297
C 10.16245294 9.96091172 12.30896619 -1.1927591344454123 0.8482388934219143 -2.713638860483398
C 11.39005861 9.23909639 11.96296782 -0.8668581949023365 -0.135565041861815 1.3538692185217647
C 12.05191575 9.13992755 13.22604385 1.2208589513666173 -0.3093300953411737 0.40055743371170693
C 11.27745861 9.76764209 14.28148979 -0.39574990015640504 0.20330640471959405 -0.13917373916766854
C 10.05086955 10.26853314 13.67911656 0.9090727255484873 -0.23301141135608266 0.25886954007602414
C 14.11631430 9.42552791 12.05297133 0.2681095242613638 -1.0572971776966422 -2.7832610326979395
C 15.17744503 10.26409302 12.29815925 3.1162329416586485 1.944847257333856 2.513271675455137
C 15.19300839 10.60691984 13.73980582 1.052054872038498 -0.3656276993783897 -1.8586905200713697
C 14.12739873 9.93094343 14.31678608 -1.7535422705141595 -0.2960064603301549 1.413095584491779
C 13.44990024 9.22053010 13.24506930 -2.0551111501937354 -0.7390583923454219 1.9417347948382757
C 15.88891644 12.90609637 13.17305091 0.052089801594385476 1.0874664456091532 0.7165084763372145
C 15.39045279 14.22259550 13.68605674 0.4027274936327645 -1.846334162434016 -2.846937944743651
C 14.64991196 13.91270078 14.85993182 0.5637314612240795 1.1661325367241584 0.534673934899634
C 14.81981568 12.51811256 15.24197769 -1.2660113297882494 0.5020779923752098 -0.49511694289983926
C 15.47916715 11.88491800 14.10455269 0.973646582508577 1.1951801194242486 1.5073560495930862
C 12.99204492 15.68122774 14.27580802 0.5228254970154473 -0.6569332011136669 -2.666349650834841
C 11.55720021 15.52422156 14.23695038 -1.5265665576449354 0.041732105269405725 -2.2726359437043118
C 11.18841869 14.49160830 15.15762868 0.7083879301004004 -0.2656862317925656 0.3129779974502783
C 12.44227082 13.98029660 15.74349826 -2.36842969886798 0.5724414903880054 -0.00879757833698608
C 13.49992570 14.65596128 15.10694259 1.3422169425700026 -0.630577124402421 1.7090958091072974
C 11.52475389 15.81362880 11.70390216 0.6471578649693334 -0.23250737277657693 1.2252835526877917
C 10.85085513 15.09169555 10.63793761 1.029291865127784 -1.158213634960426 -0.5484317779362159
C 9.75866698 14.42479119 11.24895299 -0.7224496308863614 -0.2736928528515066 -0.021993770577466286
C 9.69448489 14.75365163 12.65864418 1.1941853622373513 0.72327949670345 1.5680523635664247
C 10.83408688 15.57760857 12.96373243 0.7587339303931464 1.0175561802014081 0.766042776523516
C 9.43050951 13.15121738 10.82206596 0.11211449554526239 -1.262895294343424 -0.8756245276704815
C 10.18398760 12.45006670 9.78495961 0.8966710825010217 0.6833021635222263 -0.07143604321313764
C 10.37225355 11.05247892 10.17138138 -0.6371332116991714 1.5723083196510423 -1.7174905629994475
C 9.64571773 10.90243853 11.37055521 0.6055682831878902 -2.440722826609075 1.7839192602817948
C 9.09388471 12.14031099 11.78187511 -0.6181842808338307 1.251474307654238 2.3828856802239398
C 11.53193962 10.39316154 9.84910332 0.993129642526146 -2.3811009239284373 0.28741245230371243
C 12.67346352 10.97887208 9.17974197 -1.2298446458147951 2.2232467414034773 0.4346785418495446
C 13.82782429 10.49721371 9.88125607 2.590959461931761 1.1419837182912964 -0.8359946565734361
C 13.50990188 9.46623036 10.78483847 -1.1019952998826994 -0.5539118395699919 1.1690797957222376
C 12.09078879 9.34020760 10.76204056 -2.1722364245017776 1.6179140319407763 0.08713829623779182
C 14.93243330 11.35700891 10.17681736 -0.9702554828803932 -1.5537587790694183 -0.10643935215468524
C 14.76886002 12.71791584 9.82109366 -0.04902738101659142 0.9298332711711791 0.2065673304406437
C 15.43103629 13.46957273 10.85242397 -0.45404526610980755 2.09646080910014 0.18846782625193664
C 15.97084511 12.59148229 11.82623408 0.35977836686220893 -0.6407938995157285 1.4245662871570524
C 15.68876995 11.22146130 11.46622329 -1.8392434404382072 0.47058543781719475 -3.5556887249233475
C 14.91720322 14.72776376 11.27700830 -0.08720009462363396 -1.0926751042066918 -0.3356550570911239
C 13.65281891 15.16539731 10.73524177 1.435667194652723 1.237984895481994 1.1959042647783698
C 12.91117783 15.86138804 11.78876510 -0.27582781126005873 -0.256648847452697 -1.355350547340035
C 13.64476469 15.73050066 13.01354066 -0.48618640592275153 1.350642075551942 -0.4415303982128343
C 14.87314704 15.07149155 12.66558382 0.5090085882342835 -0.7010266581872466 2.6949365043641254
C 13.07856344 14.47023357 9.73341025 -2.485940895178985 -0.00979534823718898 -0.8033280999338714
C 13.56691915 13.23814927 9.27808641 2.724768628196237 -1.185713395537649 -0.5281609880436683
C 12.52801358 12.37425417 8.87542743 -0.7260138448569028 -1.128454432897962 0.746560684675021
C 11.26399117 13.11690658 9.16693548 -0.5029032292645403 -3.684183297204338 -0.4572861929929542
C 11.61780476 14.30220511 9.71062469 0.7380568373487346 5.512827104222751 1.4773563054087615
60
energy=-28.8439249616 config_type=nep3xyz Lattice="25.0 0.0 0.0 0.0 25.0 0.0 0.0 0.0 25.0" Properties=species:S:1:pos:R:3:force:R:3
C 13.68487194 11.89837020 15.76845340 0.9751354975807374 -2.4910155503456086 -0.5606255108955936
C 12.53116534 12.62739222 16.00473695 -2.1867771652838073 2.740137827912325 0.6819832962717431
C 11.33590897 11.84256272 15.71758234 2.0129499258026744 -0.6599290088613442 1.2545020686493924
C 11.79195137 10.54675602 15.30320554 1.7752128542558412 0.9397370912571501 1.613628188586845
C 13.24563905 10.56585808 15.35027498 -0.21682020275719152 -0.7385205203844569 -0.4991690672603253
C 9.52423913 14.07020662 13.67141106 -3.1566186421501237 -4.40437282302781 -1.6361191139671034
C 9.07885948 12.71539438 13.13451444 0.6295966268063874 -1.4288330640279312 2.5531259638247015
C 9.58839868 11.72576106 14.11621770 -1.060618135671345 -1.169857364722466 -0.7370374173580202
C 10.20863135 12.38776680 15.21665006 -1.1126494589234965 1.9021822265472546 -1.7790864234371544
C 10.19440166 13.82390740 14.84768750 1.3424096735152153 -0.7533700155132662 3.0336319573595185
C 9.97085497 10.07374955 12.25292419 -0.1196934099534266 0.08904954725149808 3.220475900857618
C 11.13415866 9.30944759 12.03696226 1.2499725933082704 -1.2266364794118276 -0.4894636761642894
C 11.85377307 9.16121608 13.30083795 0.8617520790482637 -0.5413573862087961 -0.726026946152831
C 11.17500523 9.90974303 14.28835631 -1.053942044776544 -1.5177042065186153 -0.15539445232251778
C 9.99906421 10.41873530 13.73833337 -2.091839701001341 2.276440103868419 -2.3001408398798446
C 13.93952289 9.33768695 12.07321283 0.7858353746226275 -1.3376303902479525 1.590859244663528
C 15.16557554 10.03875619 12.34320611 -0.11587023661844872 1.4621393338104287 1.107821595387879
C 15.10667184 10.42860258 13.80486427 0.311870593129894 -0.6792721047988219 -1.951046280873752
C 13.93610960 9.80293667 14.38868097 0.8156807041098376 1.657376644359715 0.9945758774325527
C 13.24914669 9.12705282 13.35255347 -1.0852713737821214 -0.16403640443405273 -1.6963536721840957
C 15.88310591 12.66281213 13.08245506 0.40456597748581496 0.7801239099272962 2.9597938765172187
C 15.47820837 14.01323412 13.54415447 -0.9457271302480157 -1.1054294078614413 1.2351122526581482
C 14.70617519 13.85782865 14.79445505 2.306667059035681 -1.338301180557143 -0.18202351004646267
C 14.81435197 12.43916724 15.16801189 -1.0055195172407443 1.3429504764702498 0.0007021459794813195
C 15.50498866 11.70546691 14.14622297 0.353270401207631 0.6915235875616446 -0.7237305680511815
C 13.13779835 15.66289857 14.13905632 1.2392524947748365 -2.051913989226747 0.5747797629910834
C 11.70289672 15.56591998 14.16985702 1.0855605099160717 0.2519589019088387 -0.22230378692562364
C 11.31408223 14.57568123 15.16535345 -0.922170859329321 1.182649670361702 -1.1037767076972136
C 12.47642993 14.02575619 15.75791174 1.1835489718349508 -1.5199728856688401 0.09432104320256493
C 13.63547951 14.63961360 15.14295696 -0.9052801992740482 1.2451761608429341 -1.1502812280683128
C 11.73756391 15.91240069 11.67658316 0.9423337084218164 -0.4163663195750224 0.6171153618553258
C 11.08737943 15.18056480 10.63740783 -3.375461235911996 -1.825839401155258 1.1274490462759506
C 9.89687096 14.50786706 11.31440491 1.4388536841285815 2.314742652634603 -0.824630964518054
C 9.88337668 14.92450188 12.71543941 0.8674960691044098 0.7345678555472643 -2.3568332788420165
C 11.08193892 15.62316151 12.93429271 -0.5691854383299775 2.168801906080994 -0.0029591965692485124
C 9.54664970 13.25850985 10.91814860 -0.7119107270787082 -0.24521032724861314 -1.7000225510526328
C 10.18976525 12.55106164 9.84381693 1.0319564755170807 0.8124017060868516 -0.8301034426649623
C 10.23647027 11.14474320 10.12877147 -0.77203264482432 1.1392457973131946 -0.3838321491865298
C 9.55287027 10.99850903 11.34801704 -1.3116970440755398 -0.13589371438147338 1.294540363236655
C 9.08212127 12.29141508 11.82236167 -0.2471871872850366 0.5188128290812588 0.9139459279031492
C 11.36078228 10.41332645 9.87801710 0.5066654743468563 -2.807662257675822 1.0940112373760817
C 12.52969149 10.99591921 9.39631265 -1.5558825446582893 2.3084705450908967 -3.215630722679278
C 13.65178254 10.41245282 9.94380080 2.701609264652872 -1.276862508937468 0.856977617338871
C 13.25609698 9.39838425 10.88781012 -0.23628520315773235 0.4475381050019506 -1.0185415639546676
C 11.82825501 9.35709230 10.81468012 -1.6826726711896884 1.009733751448391 1.3021582273076864
C 14.81964355 11.12333161 10.17536910 0.129421386376901 1.0068055781083 0.11968997255318665
C 14.72656789 12.53396680 9.86820799 0.1430321049145238 1.6834617198736446 -0.9429850417045121
C 15.43634123 13.32760733 10.83731443 0.36960534380120685 -2.0367246005944444 0.06052846445983277
C 15.97097959 12.32425177 11.77642934 -0.10354025464781524 0.9397727768166249 -0.022655739114849045
C 15.62460089 10.98072601 11.40678999 -1.798268032098798 -0.4221527360908595 -1.0926822633176752
C 14.93667931 14.52841302 11.28273439 0.5158013964661717 1.9597681779792397 -0.8453088774776027
C 13.84685433 15.25590641 10.62445803 0.46633404517569177 -3.178367450921784 -0.5143424709543498
C 13.12354149 15.89443864 11.70045082 -0.3576847003270792 0.1712526939333918 -1.3862397244390086
C 13.82240050 15.70315080 12.90871155 -0.14888160896190802 1.2403729324114443 2.037980475489759
C 15.01398420 14.95110581 12.66559643 0.029850919131427667 -0.8736306118012618 -1.130968439289456
C 13.19480344 14.42410287 9.64968980 -1.6388835127769663 2.2911673149490057 0.8947148364792856
C 13.65541277 13.17003135 9.20015639 -0.6891812807280119 -2.4083244831009596 0.06172684965403983
C 12.44757511 12.30465692 8.89244838 1.7746492598531498 1.8686194424346692 1.8156575471331295
C 11.30277110 13.15554811 9.26599637 -1.1024296554369835 -3.317428140374093 -1.2324553918225236
C 11.67815436 14.41336395 9.65314889 4.02558279016391 2.8892352349708297 0.30541708711671733
60
energy=-28.84250580504 config_type=nep3xyz Lattice="25.0 0.0 0.0 0.0 25.0 0.0 0.0 0.0 25.0" Properties=species:S:1:pos:R:3:force:R:3
C 13.64459281 11.81655647 15.76182117 -0.5788578102090923 -0.5346906446327315 -0.4002675986147712
C 12.56799693 12.72275789 15.95737959 0.3596649806254401 0.9395456501904379 1.232162371148534
C 11.33849428 12.02590178 15.85120496 0.3193671904169465 -0.39588884274335134 -0.08312185592674526
C 11.59605716 10.68656963 15.40394706 0.3024871408296894 0.35186989583785744 0.6897934095453664
C 13.01990737 10.59811965 15.35868108 0.4514734792696812 -2.4814842313679684 -0.02071281678228946
C 9.71705870 14.38207208 13.63801664 -0.5968221799830212 -1.540658376053261 -1.4726236243555892
C 9.17113514 13.07105853 13.21187332 0.12254753098757382 0.8703633429891684 -0.2013781989939813
C 9.56967788 12.09086586 14.19733198 -1.2781310569755142 -0.8814862345235187 -0.7286203286836708
C 10.34465716 12.69690794 15.25129312 -2.9392355228514124 2.632919160008233 -2.1677245940541674
C 10.41711855 14.13802403 14.83748529 1.123383629937375 -0.9263430830243818 2.0204104712778985
C 9.62793220 10.40937697 12.36517337 -0.5921994092080408 -0.0453440762547517 2.027453566696127
C 10.63409350 9.42289323 12.18185914 2.242703132134368 -0.1475356559282635 -0.7193253075384737
C 11.36290454 9.24939574 13.43947101 2.598680533383304 -0.55815773971943 0.3141063642355318
C 10.79944162 10.09310036 14.43921346 0.09005898151104133 -1.2915002173594656 -0.5751413784892879
C 9.71827802 10.74996314 13.79758584 -0.7634594361064219 2.350569657507152 0.2159922897004183
C 13.47343221 9.12253952 12.19934028 2.0515777647612485 -0.17121628864710453 2.2217884296314288
C 14.71768353 9.78859110 12.43443557 1.4533806252170314 0.3196753115069004 -2.040602067992683
C 14.83747864 10.14890358 13.80492385 0.3340957906197808 0.35606651995317 -0.5739356672307916
C 13.63312615 9.70378094 14.46703926 -0.2898594631095805 1.1016765048674946 0.2907124850004561
C 12.81555717 9.10273388 13.47237252 -3.546583076558208 -0.7642184795342194 -0.9211144654090467
C 15.95766570 12.24694934 13.09960193 -0.11920485719436408 0.5897391834672239 -2.3466550267022326
C 15.72675411 13.66217529 13.46704028 -1.26586084754144 -0.0832130054170339 -0.7759968366770086
C 14.94897598 13.60097212 14.68710755 0.47292566551278037 -1.0012772387673485 0.39726102005670877
C 14.74749573 12.21518301 15.06468624 1.648753427968392 0.8368990118899453 0.03888111489982741
C 15.39200770 11.39829559 14.07935869 -0.1823561696977678 -0.5424063004479681 1.107399769613556
C 13.56855058 15.49157846 13.99430336 1.5956717410740413 0.10054876610113174 -1.142398387176893
C 12.16885209 15.70750442 14.02848122 -0.3350369101408662 -0.8843877789692886 1.8325829592715366
C 11.61061787 14.79448505 15.09575289 -0.84905971871987 1.4707367076090299 -2.4617432571616416
C 12.67825069 14.03491210 15.54628794 1.9963231769153995 -0.9766675575742945 1.8601779390197322
C 13.92078313 14.44931521 14.95723422 -0.7680681457606107 2.0368899048622136 -0.8306778729331329
C 12.22784788 16.10240398 11.56931080 -0.7914146126722287 -2.2711219354751466 0.42849122772133585
C 11.47367065 15.25560385 10.64999744 -2.0322179615434037 0.4922916151816879 -0.6034600266331919
C 10.26728445 14.82052729 11.26963831 -1.5639265691509734 -1.334231215831994 -0.359802584958476
C 10.26486820 15.20872033 12.65990976 -0.4629501800214923 -0.5045465148093454 -0.9042999468469516
C 11.50653892 15.86133107 12.84895195 0.6163428227952641 2.1064008873581805 -0.6105436421574699
C 9.63699546 13.58535488 10.85671532 -1.0890209117539311 3.0716855288874707 2.6836188649531962
C 10.11390524 12.77958135 9.87670984 3.2317128331435248 -0.8699059336981299 -2.817512037717133
C 10.01942556 11.36515453 10.22298662 -0.09213075859654198 0.6155388233753637 -0.5733838037754139
C 9.25853831 11.36353175 11.41774675 0.6286666600831425 -0.9696889408834515 1.3139644636560586
C 9.08243815 12.73312603 11.84946321 -0.6188904072193836 -0.13199756941457857 1.7723323347707938
C 11.10968098 10.50375204 10.04354367 -3.3998272395861733 -1.020459729384722 0.7270849212675458
C 12.26665287 10.91019746 9.42532303 0.5529432603483484 0.7331305971083828 -0.9585106500325039
C 13.32689748 10.23722256 10.06214060 1.2087661384887747 -0.011746036837716448 -1.7719787855473343
C 12.84184464 9.39185736 11.05117709 -1.6002126033329336 -1.594411631882627 -0.8967920621855019
C 11.43869973 9.48181183 11.00810905 -2.8193364171346453 0.5437986983182493 0.8217734482322375
C 14.51664126 10.86110264 10.17911283 1.2261561680775945 -1.7604537331840364 0.738276330708389
C 14.70381252 12.19428336 9.80197588 -0.7094845371822756 2.6321458986120994 -1.4413470612649049
C 15.52058516 12.83518772 10.76412968 -0.06490326619511702 1.900895273787319 -0.41439652244299857
C 15.80754772 11.84417851 11.72213282 1.9857888420472645 1.1176528577790517 3.529913649473102
C 15.27065317 10.58226886 11.38034784 -0.6429153093623119 -0.10397856196483807 1.2152974108953345
C 15.27467270 14.20279352 11.10551532 0.18933627221008648 0.2598701482258314 0.9237043819123282
C 14.23824664 15.02344896 10.51808896 -1.0223573728170277 -1.463235800586062 -1.1767481224800114
C 13.59654895 15.89694601 11.53215795 0.6763464837994815 -1.0257882063776003 -0.07029251281480323
C 14.26779654 15.59674649 12.75182157 0.8083661223138999 -0.5086017674641876 1.9316959457297354
C 15.34041565 14.63461883 12.49201109 0.5294680597997268 -1.5637044802410525 0.7689606665899444
C 13.42918035 14.29895712 9.61403654 -1.570704006759081 0.9040142529683862 -0.126659908418168
C 13.66793164 12.96670946 9.20999880 0.3404135064095496 -2.713571552908421 0.7150190794843808
C 12.39404835 12.22395442 9.12570162 0.47535231836185377 3.566818541993522 -1.5667090814035012
C 11.32741317 13.23064438 9.32219839 -0.2745839561147178 -3.1509338067169357 -0.8730762253841656
C 11.92394427 14.43421768 9.63085991 3.2319714009474674 2.3272469398300424 0.8035725014221917
60
energy=-28.12878181314 config_type=nep3xyz Lattice="25.0 0.0 0.0 0.0 25.0 0.0 0.0 0.0 25.0" Properties=species:S:1:pos:R:3:force:R:3
C 13.58765361 11.73413121 15.74172315 -0.2352129575480489 1.0490166479786818 0.9634250819787541
C 12.68322224 12.84565004 15.92436859 0.7197018617148631 -1.0651031449600767 1.5109116758961305
C 11.38190384 12.33021583 15.90650958 -2.179608601328857 0.41814216997972065 -1.0603357124146615
C 11.46936169 10.91591026 15.59346165 -4.043942163945268 0.40434165375151077 -1.4471378173145377
C 12.78833494 10.60945474 15.45390038 2.60096206083593 -2.707826096390073 -0.42563264226357966
C 10.06243839 14.70574610 13.54573990 -0.015338779648221744 0.7426477292380769 0.3151008690656359
C 9.27587448 13.58323828 13.20219738 -0.7117948276593391 -0.9834005654208922 1.0188328423256323
C 9.45316068 12.56389150 14.25774571 0.14201989569720513 2.3362967000271695 0.31723076557622837
C 10.39291509 13.10670238 15.27619391 -0.2931890084013027 0.07095869659546009 -0.4010426273340345
C 10.71976214 14.45540855 14.85626547 -1.732433225214491 -0.7108742278827845 -1.614642417148388
C 9.32296469 10.84953493 12.52903662 -0.492024172685955 -1.2367835389981519 3.2059890486453346
C 10.25798577 9.84100997 12.36573870 1.637639088857715 -2.7855999787615278 -0.8249735647052269
C 10.92144034 9.45777398 13.64376260 1.5775005749635036 0.787008286581949 -1.3208714002544393
C 10.56531080 10.42653290 14.60827230 -2.3513248376015845 0.5244151225648519 -0.39864790706195236
C 9.42112419 11.27383899 13.90300928 2.7375747511127324 -2.214072754688719 2.5452642492045636
C 12.97652474 9.13121057 12.28882437 0.4123870271719213 -0.9386889569487923 0.055456769361691034
C 14.35865483 9.53168751 12.44592092 -0.564719124288666 0.5569117994430753 -1.5152305601547769
C 14.53511634 9.92359526 13.79549460 -1.6001964615724102 -1.0853798655407223 1.206863491098237
C 13.25684982 9.66514542 14.52633765 0.08751026276263343 -0.0031054284477315206 -0.8339192104619013
C 12.31114023 9.12565102 13.56842920 -0.33528546979857493 0.7950320123201635 0.26363494953311106
C 15.96191370 11.70404687 13.08780000 0.2737214747058833 2.749030861455031 -1.6944437786242115
C 15.88866510 13.15392728 13.39762031 -0.47069333500495697 0.5472793710224786 -0.03380973124144559
C 15.12722943 13.21765278 14.63568218 -0.8454043655476223 1.683627631624714 0.560731998765629
C 14.78853738 11.92113006 15.14247297 1.8072649781602794 0.1708675305194264 -1.8671338644850273
C 15.30683522 10.99025352 14.12967651 0.04260725148578967 0.13978537630321233 0.6956418504766719
C 14.00974023 15.26865436 13.80558539 -0.16014127170093329 0.24343233786405766 0.8281365355890831
C 12.59827773 15.71713973 13.87567211 2.0460867455733234 -1.0001973490703315 0.954759709772382
C 11.98481118 14.90532609 14.95914845 0.7746891011988056 2.4881241903700766 -1.3715607920635462
C 12.99038205 14.10096958 15.47677587 -1.9621122641660245 -1.3951624152604507 3.0137180875851235
C 14.15645195 14.24038186 14.84882489 5.5706657453866875 1.5834337212436125 -3.7585921212921956
C 12.74968123 15.90968466 11.41099250 -1.5074623406126393 0.375374449077374 2.054771765957717
C 11.76696781 15.32771314 10.52888351 1.36299490335855 0.6722676095693163 -0.4412509990842525
C 10.54564778 15.05035266 11.18004937 -1.7823915458921227 -0.2432091768083653 -0.031128708890032917
C 10.62773402 15.47886811 12.52508328 0.6434285739730377 -8.327597622070763e-05 1.0183950138812043
C 11.98085787 15.99549614 12.70190242 0.32235431497244105 0.060127622913470714 -1.11305042918331
C 9.76858723 13.94005603 10.84388540 -1.9374689258658264 -0.7485083425414701 1.7864993387534038
C 10.18062785 12.97379473 9.88666827 -0.9331810268751097 1.7539517698967568 0.25487931388955865
C 9.72113557 11.68232245 10.28088462 0.38460498710071606 -1.54115764295794 1.0772912800756191
C 9.03166364 11.72850874 11.58658864 0.21647945210485667 4.334381963716912 -3.93359125824071
C 9.01457489 13.17885015 11.90243492 1.3316981751608377 0.7807175712581457 -0.5994663898192927
C 10.64745374 10.66375549 10.13320766 0.8329438048255442 0.4669762783608027 -1.4814439163404336
C 11.95871655 10.90265314 9.50412232 -1.4211417569801854 0.26571844106815173 -1.0572968175091997
C 12.90858622 10.05566344 10.08387033 3.124007453395355 2.3200438277784885 -2.464625346480294
C 12.30326544 9.41262098 11.11696323 -0.049405522827006484 -2.6537675258032825 2.2063344918292827
C 10.91752749 9.70162902 11.11765632 -1.824316776730034 -0.1772489277762611 2.4717367377896955
C 14.24530086 10.57001582 10.13784401 -0.7749158368109864 -4.022785583560817 3.250343510672117
C 14.62440136 11.83220624 9.80000499 -1.5032502301771584 2.306282675858033 -3.2108675067463195
C 15.55373094 12.44265210 10.62902615 2.4980740888276385 -1.9532913753022974 3.5296478493507637
C 15.78041039 11.42694969 11.71906035 -0.5178127655058197 -0.6371677748143149 0.012603615272499912
C 14.91217854 10.31205088 11.40932492 0.903900549606444 -0.6281993558170017 0.15054291628787406
C 15.56535116 13.75175281 11.01563482 0.30367973777111557 1.3236548257032081 0.9056924128965942
C 14.60554274 14.63183161 10.44633383 -1.917972163295524 -0.5883348547137702 -1.8839435468392538
C 14.10692862 15.56584762 11.41493676 -0.8511469834567692 0.06052693577225312 -0.3717815688773398
C 14.78189855 15.27263096 12.63624109 0.29697318345043716 -0.7860178800757364 1.3586275012212463
C 15.79184019 14.20380438 12.41069636 -1.4944593512200495 -1.9730349669113227 0.7019745768505762
C 13.64851540 14.04448821 9.58551890 -1.747765792236492 0.3176493963733862 -0.6571408281011101
C 13.63280241 12.62538958 9.22976089 2.276232493167842 1.9332284550731358 0.21848617054868275
C 12.34269996 12.15480121 9.08406140 -2.9524843964590213 0.9580671020804075 -0.20299842843910457
C 11.37884383 13.26742383 9.33807824 3.377742847404971 -0.8359070087100101 -2.0633029802311973
C 12.20544903 14.47100436 9.57051584 0.8985417833999675 -2.3064945114634945 -0.37336433636676064
60
energy=-28.63134206838 config_type=nep3xyz Lattice="25.0 0.0 0.0 0.0 25.0 0.0 0.0 0.0 25.0" Properties=species:S:1:pos:R:3:force:R:3
C 13.56936857 11.74538503 15.71747010 1.0527226626942838 0.7260122005212827 -0.15550364972393593
C 12.74855658 12.93218393 15.98689168 0.4173643530392546 -1.672619797669144 -0.26237798281194974
C 11.34339763 12.50169849 15.81245358 1.8891561152592202 1.4630214890920992 1.052381283418361
C 11.35456612 11.12646303 15.56283885 -2.9771193441766894 -1.9465381821713652 -2.122028098883537
C 12.65852415 10.67235635 15.37030325 2.294905666268057 0.059803285350008874 1.3174902896207803
C 10.13757403 14.89590450 13.54876178 0.47155277967172365 1.0160287180595402 -0.3296101595411992
C 9.28817606 13.79024289 13.30481332 -1.734032962641214 0.3044274630991304 -1.8711029443383207
C 9.41607166 12.83200678 14.35179056 0.14266063647464314 1.9014510901506108 0.1731823161573681
C 10.46632493 13.32755255 15.18392132 -0.9905450677870246 0.1976986948395321 1.037148042038565
C 10.88631558 14.58685072 14.67879843 0.5484644061875857 -0.21583555814766262 2.4482471949043085
C 9.23925457 11.16336133 12.71607117 -0.12395065015774934 -1.8610353536517976 -3.079960853120855
C 10.03548089 9.94505456 12.48411559 0.8239752025937002 0.8467176157249295 -1.1786066043008054
C 10.76932427 9.62033408 13.68493571 0.2638630975662799 -0.3979888046205284 -1.2394012154955028
C 10.38518676 10.59461934 14.66939324 -0.6796892933204135 0.9610916723712633 0.4981998143724419
C 9.31379671 11.52294394 14.07432436 2.2402144386311837 -3.043399117233716 0.45245378811602627
C 12.76126654 9.02132931 12.30881565 -0.050105515094121776 -1.1692251680685646 -0.6689083823674365
C 14.14669335 9.34445921 12.45035150 1.1292452092926406 1.6791169349030806 -1.5328812801748954
C 14.37256644 9.77600527 13.78974637 -1.537595384095945 0.8744617631892742 1.8219862733784755
C 13.04011867 9.73991706 14.45350399 0.9556879299860185 -2.33469092362232 -1.228029100005871
C 12.09002175 9.07698743 13.53413094 -0.928443379175777 2.726647932194551 3.2801806061862058
C 15.86623325 11.50447166 13.11717097 1.2516488432949844 1.3191114917110283 -1.676263897471818
C 15.98733990 12.91227294 13.43399329 -0.6986375686555083 2.0251204290076505 0.7848535175228973
C 15.33863212 13.18807666 14.71657097 -0.34158353501886585 -2.7640979230758553 0.07640579266001082
C 14.87562910 11.84357098 15.14076792 -2.3180494442494606 0.7491142266812465 1.1389526281941325
C 15.20562122 10.85647388 14.15138263 -0.47049081976961277 -1.3106131004555202 -0.013834533911218649
C 14.27258861 15.16291584 13.83130362 -0.297559628472941 1.459978999133763 0.5211604580823003
C 12.91268618 15.63179439 13.83843448 -0.5554636233942581 0.11707504298315964 0.6628496240295061
C 12.18801323 14.95162522 14.87632026 2.4006543238066387 1.2862662209073201 -0.13565680740464736
C 13.21603975 14.14070639 15.51625626 -2.2641466538875274 -0.8611485739336671 1.4076460023177908
C 14.50135524 14.27524403 14.94007733 0.28825989173164884 0.4383796959101078 -1.3457356564467704
C 12.87869621 15.71215944 11.37427219 -1.3085050959048854 1.3902424525881691 1.1789207075650203
C 11.88301804 15.28855453 10.37986807 1.4848736393630477 1.1143596995302587 2.244845429643829
C 10.66656354 15.15601364 11.12693158 -0.9984295515589737 0.44618610016221544 0.9262708404902018
C 10.82379716 15.55889550 12.57099912 1.1663461874064154 0.4407275657723554 -3.2230734772143985
C 12.23188155 15.92968099 12.69272109 -0.8313787865641581 -0.2365067778801438 -1.7610526071765455
C 9.77704111 14.16556845 10.79905279 -1.1552965421265953 -0.8607023011812219 2.5491241363799175
C 10.22052559 13.14349095 9.89166227 -1.5027204980527529 0.6071665103998268 -0.035222677442663844
C 9.80986654 11.87185871 10.34063941 -1.9492072572661203 0.12724594899706274 1.862006100596887
C 9.11357498 12.04923953 11.60349759 -0.8513876432821396 0.314513904285361 2.3526018961366657
C 9.01379692 13.45481859 11.97711485 2.109660557699422 -0.2612860545133861 -2.3834353009359335
C 10.59574995 10.78046341 10.20269022 0.7581856396760286 0.5138456215452404 -1.8015999918417482
C 11.85061877 10.96096687 9.46787815 -1.1194869391895135 -4.258709374506929 1.3373203396419109
C 12.76114992 9.97709724 10.02098415 0.11812470279621406 0.9682289056701541 1.0199610169068056
C 12.07706586 9.32789642 11.16789683 0.1599667688748877 0.39042459833293025 -1.8284048545808307
C 10.74433821 9.85470836 11.24343105 -0.501281155540199 -1.397052299747354 1.5767969959361579
C 14.07077497 10.43145900 10.19581174 -0.13901033959640716 -0.7690935345040051 -0.5050483909867992
C 14.56874367 11.69124182 9.70297897 -0.5813858011018523 -0.26038971307849157 0.17990687864546215
C 15.56572645 12.14431499 10.68673909 -0.8389815203232932 0.6190381326138409 0.06367701169810998
C 15.68208544 11.16371853 11.78651978 -0.9133813566652197 -0.7140440480680393 -2.1827496552472025
C 14.74980063 10.11626975 11.39193099 0.9665096242885368 -1.3455912811085657 3.1024497638980364
C 15.56897744 13.50499165 11.00446626 1.3777791652705458 -1.5512329978255595 2.4162773246959683
C 14.63778394 14.34002308 10.41361870 -2.080058853749736 2.0851801787730686 -1.1987860862116588
C 14.19030598 15.36715266 11.37919823 1.5550964570580361 -1.7685202144319025 -0.4596964391709138
C 14.89277004 15.06297068 12.62949753 1.1163188349492474 -1.0449444240226333 -0.21644992730425464
C 15.75645414 13.88706282 12.48786977 -0.405747493097878 0.41020656120359217 -3.905211232265714
C 13.71530947 13.92515537 9.41430031 -1.0236406883551497 0.2557735459497257 0.49854738386266717
C 13.60976661 12.54013618 9.07566829 2.9128358230966236 -0.2476783735651951 1.3614975340573552
C 12.25050493 12.14544039 9.02380233 -0.25105825747468696 0.7349452011015383 -1.5452655668763784
C 11.36959145 13.23978061 9.20056343 3.326424454604688 2.6374482378080346 -0.8421943229063275
C 12.31251202 14.37484159 9.46927791 -0.8084642827989434 -0.9188059781478627 -0.6136272413514305
60
energy=-28.76187233513 config_type=nep3xyz Lattice="25.0 0.0 0.0 0.0 25.0 0.0 0.0 0.0 25.0" Properties=species:S:1:pos:R:3:force:R:3
C 13.47168121 11.72218180 15.76966654 4.012001547810407 0.35658144646774814 -0.9342309316378733
C 12.86134749 13.04800898 15.92973049 1.2757853409490982 -1.4708272534478897 0.741047710053957
C 11.49016174 12.82213844 15.79027436 -2.3890779396655435 -1.3418368338181996 -0.16378466405997855