60
energy=-87.60003760837 config_type=nep3xyz Lattice="25.0 0.0 0.0 0.0 25.0 0.0 0.0 0.0 25.0" Properties=species:S:1:pos:R:3:force:R:3
C 12.76239834 12.03979543 15.99216898 -0.5880535239431679 1.4256071616156805 0.3194747514797377
C 14.08028503 12.05841135 15.52497564 3.424841307281792 -1.140783889219895 1.016676381685736
C 14.58497204 13.38963237 15.30193660 -0.9931737751773211 0.5494302142779409 -1.498887851878791
C 13.40296051 14.26648030 15.44969806 0.2734330575086092 -2.25530505223993 1.6863795687306702
C 12.32917497 13.43230933 15.93748270 0.39853012154284195 0.32804366997909656 -0.33221454571061043
C 15.93498095 12.79319246 12.04711290 0.3390578807949389 1.439836629052569 0.7593787409465996
C 15.41721624 14.11837073 11.89355423 0.3884270731057312 2.1105921123717066 0.09575020261569164
C 15.16882017 14.69639542 13.23360149 0.17168703098214222 -2.155128929016118 -0.2667507004163542
C 15.43188418 13.58795299 14.19564830 -1.0668480291779106 1.1800150030562795 0.8240670728890196
C 15.91891853 12.47517770 13.51087699 0.4519237344284228 -1.6638671671401088 -2.7223093242940686
C 13.27567049 16.00511013 12.29191981 0.5102942537599653 -1.9154496699961052 0.7276510337974567
C 11.89529215 15.97166985 12.68176455 -0.7309622046878959 -0.46326636377014924 0.27287970979119747
C 11.85119178 15.58217386 14.07494289 -3.0611425350407186 -0.88820023082097 0.32786805871294894
C 13.07692416 15.23428536 14.58503844 4.782511451306687 2.262747289363397 -2.838575763781036
C 14.08497305 15.47972380 13.42709476 -2.5521066947035083 1.3286491237123188 0.7244136602022687
C 9.79392464 14.41274230 13.60089518 -2.080868333113221 -2.0763025425600805 0.9111544307084791
C 9.29047097 13.09407115 13.98733601 2.0771577997096147 -2.4661339917827965 0.02485723535732446
C 10.20366789 12.59395954 15.10269877 -1.5304114356958005 1.8347283217760362 -0.491226053772043
C 11.08145452 13.74915150 15.48177850 -2.3628597097653166 -2.616189559688395 -0.5035192199880143
C 10.78722195 14.77652863 14.55262404 1.2061388690061494 2.036778935141516 -1.1131820723347607
C 10.28397077 10.40993321 14.16650839 -0.8021443108757051 -2.2298657656407452 -0.9319807540915765
C 11.40958310 9.50522497 13.99021032 -0.05463215334660403 0.9030275377867577 0.8915304012606461
C 12.41954641 9.85464572 14.97731909 1.1088587196978845 0.5944414489501335 -1.625396583581655
C 11.91934396 11.00862154 15.67653951 0.0666509629013826 -0.9235134075852776 0.33184422296076993
C 10.57257678 11.25292006 15.24449256 -0.07410647631628171 2.7734086663287587 0.10098720139443448
C 14.07919578 9.55641864 13.20842128 0.5216239950216537 -1.3544937691276084 -0.7881621980274582
C 15.19317194 10.27572447 12.71486844 0.9337682414744979 0.23149444706601566 0.8738315806006779
C 15.57352507 11.15240648 13.82353122 0.21916319369807707 1.249219087379616 -0.41034224379661416
C 14.72539858 10.92348234 14.96194356 -2.241746836220507 0.2335093077630848 -1.0137224714636714
C 13.77088123 9.88193736 14.53034734 -0.5143046624125522 0.643633940445109 2.05597468925931
C 14.24738965 10.22859332 10.39563711 0.5320131403736091 0.9603907025784753 2.0204700478548636
C 13.96994463 11.38005256 9.51927815 0.5425556062909371 -2.2413528799312443 0.25827763471049736
C 14.85205501 12.42151727 9.88640362 0.7282950275460892 -1.1767080578624707 -0.5939062368033644
C 15.74514814 11.94611126 10.98867314 -1.705391349630529 -0.37732899850590795 0.2609578202688169
C 15.31566956 10.60142953 11.37909442 -1.0372337063207786 0.7251379004391377 -1.9050620932988518
C 14.38316577 13.70033749 9.68539537 0.8194698287432381 1.2759933806424406 1.8074013588053395
C 13.03646778 13.99856647 9.29373805 1.0645245290711298 -0.6102001301847694 0.3610068735215532
C 12.53748434 15.06837226 10.14286542 1.7675730996571941 -0.297678718315669 -1.6586614388506693
C 13.55183552 15.45053645 11.06228476 1.8223218492014084 0.24384018495210913 -1.3118204543719396
C 14.73954041 14.61356489 10.75631472 -0.7016068270942103 -0.11479939124830849 2.015806326757686
C 11.24068192 15.12845053 10.45832338 -3.190945468049542 -1.1458609974228386 1.6406966212148981
C 10.32023072 14.00975860 10.13001911 1.9185911150568584 -0.06076787503305086 -0.8297341089677024
C 9.41633748 13.76158743 11.24949104 1.147841813069309 1.8813153793441983 -0.9192738632954243
C 9.75943146 14.73274853 12.26164776 1.3211222523560229 0.6433207890383681 0.4192840665413389
C 10.89631101 15.48938156 11.80754584 0.5576941004131525 1.6055491046242967 0.17643654357514185
C 9.06453771 12.50323948 11.59066134 -0.19671029319027597 -1.581751739941279 0.043666278116706175
C 9.59037777 11.39559654 10.81920025 -0.6143512737452151 -0.37146134609936254 0.46750665245500794
C 9.81610276 10.28211721 11.72731905 -0.0302482773498276 0.17906668984527005 1.0217325973111364
C 9.45606799 10.72086563 13.09301954 0.37215020793468445 1.517693454960829 -0.6772185854298844
C 9.00659782 12.11988070 12.97270002 0.3903635516400343 0.38433761059774374 1.4192542637569183
C 10.89943327 9.42524081 11.57471865 1.1071384228734813 1.7786773395125148 -1.3511485593588302
C 11.80474232 9.66410286 10.41170429 0.8129069848118022 2.334225332363733 1.1562675171065768
C 13.18409808 9.58816090 10.99226012 -1.3590492372791985 -1.272569512402703 -3.5157672724939406
C 13.11252818 9.16976658 12.32105984 0.4726008733299661 9.832440899584766e-05 0.18755949301572852
C 11.77843046 9.21977181 12.70853736 -2.0587710344896997 -2.037025977177874 -0.1028029303848427
C 11.60473184 10.81281146 9.57832357 -0.9787945536330375 -3.0438741198082324 0.3534176178116404
C 10.40952152 11.62480451 9.73295568 2.178282009837069 -0.07613507470885333 -0.09498603900286606
C 10.92393317 12.94941329 9.41081421 -4.661009488691909 0.6881162861189857 1.529662510003634
C 12.25984355 12.89045920 9.02099559 -0.8555248832276435 3.331209781976088 -1.1847306806789546
C 12.68116454 11.59181124 9.01495137 1.6049380764691348 -2.120026906057437 1.5959693111895283
60
energy=-87.31051611906 config_type=nep3xyz Lattice="25.0 0.0 0.0 0.0 25.0 0.0 0.0 0.0 25.0" Properties=species:S:1:pos:R:3:force:R:3
C 12.78927368 12.12731931 15.92290154 -2.520181816176924 0.6058518576918551 1.825274041053007
C 14.13605137 11.99494343 15.59973828 1.696422175711945 -0.7179688933868583 -1.0309134827151731
C 14.67388466 13.28658752 15.19299762 -0.6884950192687392 -1.0734123866893486 1.7705841169002499
C 13.59241881 14.18728322 15.40345724 -1.9365044776930127 1.1137836307379863 0.10170203642470928
C 12.38899422 13.53745988 15.95555181 0.06356361603327136 -1.1312067352074313 -1.7451422077569283
C 15.99978294 12.60425534 12.01662823 -0.1650773952700202 0.22513240204885948 0.4954612578478326
C 15.65954747 13.98869848 11.85133826 -0.8769201866758047 0.71040590539074 1.2072099075755365
C 15.28224456 14.50208492 13.18563030 2.4289008248473727 -1.8091066681024273 0.6506856100177273
C 15.63065978 13.42737446 14.21621818 -2.171375194507548 1.3352522537644 -2.28541224616601
C 15.87833076 12.26324680 13.44185377 1.0350151605812639 -1.894806291786712 -0.7224597168110045
C 13.55427584 15.80858645 12.23165469 -3.6382071742042714 1.2690220539714365 1.2552383484213192
C 12.11834583 15.99148715 12.61781153 -0.057647271371830344 -1.4777594556962979 0.7931057983009618
C 12.03724748 15.59165576 14.04827422 -0.35780832690206366 -0.08581741497932917 -0.6614218281272193
C 13.34329565 15.14343956 14.45134507 0.00471682884258065 1.487023612119467 0.689426687387865
C 14.24296607 15.35345987 13.38353322 1.1389744300263116 -0.13163790322964064 -0.7609445466040011
C 9.86751517 14.67684821 13.61400143 -0.8417257578211298 -3.0004459291819403 0.9040361396417624
C 9.43833972 13.31386451 14.00904509 -0.833768391445679 1.2771187414121996 0.6991511085609544
C 10.14919544 12.82730467 15.19862493 -0.575689227195934 -0.28295962618860787 -1.7973126538547457
C 11.06511846 13.84576612 15.47232450 3.077406427043858 0.7001051269994111 1.636029025278972
C 10.89942166 14.96039610 14.57822731 0.9587396331693463 0.8675873121223714 -1.8463368325496499
C 10.16545637 10.57959438 14.25882494 -1.3841155779827374 -0.48685789752222963 -3.056589496162891
C 11.23783033 9.66104028 13.98632237 0.9755661043253786 -0.6247868329613642 1.599883197628228
C 12.33157362 9.98077560 14.93695398 -3.169790091640837 0.018039908101194897 -0.5823468541434579
C 11.83917199 11.11870897 15.66374403 2.7142800649984196 0.6996434932191842 0.5537060224694156
C 10.56270003 11.48287705 15.21350065 -0.5220760522360384 1.8546078352083815 2.018481787763144
C 13.94578489 9.30400043 13.24660786 -0.0643872274119597 0.7855649109019145 -0.995815551772616
C 15.03273012 10.07023046 12.72856239 0.8971592198651391 0.12116094921414591 -1.1024379912786972
C 15.43407328 10.95581314 13.82088272 1.2698431341529381 2.269381671415132 -2.332941797777602
C 14.53106819 10.83826225 14.90697684 1.046460290589686 1.4796636587612657 0.38846454512758477
C 13.61053588 9.87023405 14.53967885 -0.04889112555389247 -1.9824993119118905 -0.09632263303370465
C 14.06205332 10.08307493 10.40884677 -0.2799243541276009 -3.5980467564879315 3.381619331263818
C 13.86082991 11.15708241 9.54690420 2.2562472523795525 0.7852422206082478 0.6839417540574222
C 14.80997476 12.18487724 9.97875334 -1.1777237523391872 2.2169836628762973 -3.69996901273592
C 15.61019722 11.71648158 11.01525747 0.5957149861844161 0.5226939168579033 0.9541949496800533
C 15.17698937 10.40475968 11.30619097 -1.6347190057807728 -1.498458968339886 2.821951751920739
C 14.49137493 13.55036373 9.70052936 -0.05971170596654425 -0.9949835523799462 1.8215791306914804
C 13.09127026 13.94459394 9.29268055 2.147694225208944 -3.2457621830761707 -0.12915840298898296
C 12.71168604 14.99621110 10.10450402 -1.6110229414288026 1.1668002804898923 -0.39591719881251464
C 13.76003089 15.34559367 10.99803255 2.5401910267450902 -0.6905450504088386 -1.3346931514318932
C 14.91991102 14.44908075 10.76646277 -1.4941651580884534 -0.21106272060491366 -0.7630247378879025
C 11.34965738 15.11848610 10.45212054 2.2492556015206127 1.5649907929915214 -0.6054762458318287
C 10.37906063 14.21621343 10.05482395 -0.4963032387565023 -2.2389008738546328 0.16331579125260368
C 9.43787311 14.06750406 11.19500913 0.40698620575108424 -3.03193468282459 0.21790305747755326
C 9.95115855 14.86292288 12.23282744 0.0921201176602769 2.7632192638045217 1.6135925903935462
C 11.06823736 15.59645645 11.73850834 1.363242721164749 1.233754660754354 2.138672876831994
C 9.10117324 12.76189836 11.64788414 -0.6746821722262415 0.8191513366097777 -1.527331959252688
C 9.49598842 11.55097300 10.87213718 0.2966664807013105 2.97505828648444 -0.9434518359362689
C 9.74081111 10.55842483 11.79711526 -0.03855453300028423 -1.5426720418129263 2.356899122014247
C 9.44669001 11.08659543 13.17845172 -0.415321055582801 -1.3568654299495821 -1.4012691878195584
C 8.94985138 12.45400606 13.06318959 1.7542023009059269 -1.777876140349681 -1.2786486233775818
C 10.72052453 9.59445116 11.58264842 1.6316084527757662 0.015142769773664973 1.4990178658946303
C 11.66968497 9.77008686 10.47727914 -1.459030432923672 -3.2295816495951732 3.2329400546672185
C 12.96355044 9.24245467 10.94292800 1.9320006024316263 3.864073938755212 -2.058541814151361
C 12.93193787 9.02287173 12.35285983 -1.7495940173390012 -1.1608818096516753 -0.041611403426249124
C 11.53478099 9.12205518 12.77915353 -0.7955576805566348 0.9090196147677735 -2.227034172168007
C 11.41320465 10.76970236 9.62884989 2.454773979053015 1.9119869689857552 -2.0646550157554064
C 10.35611941 11.70966263 9.75647668 -0.7887953755238181 0.7893245969009237 1.5056583106422603
C 10.86709537 13.06505615 9.41651321 -1.8451224037951273 -1.756011076447245 -0.12400351696670925
C 12.19741637 12.86997602 9.01765486 1.561706982256704 2.537281158994311 0.23510320286126804
C 12.63531476 11.51980179 9.20354332 -4.215893330049963 0.13846527273264028 -1.6058681951650076
...
