60
energy=-62128.98359243818 config_type=nep3xyz Lattice="25.0 0.0 0.0 0.0 25.0 0.0 0.0 0.0 25.0" Properties=species:S:1:pos:R:3:force:R:3
C 13.74147384 11.89484967 15.90732695 0.0443671851007901 -1.2721796915656978 -2.380931760731759
C 12.49586283 12.65890140 16.05387593 0.6794097409759259 -1.9876823393016938 0.8233933623596119
C 11.37540529 11.76801062 15.81065685 -0.4565696030521008 -1.4590629595634055 -1.8924856463276807
C 11.91049007 10.51574354 15.24507484 1.7440622510842383 -0.05936965197005904 1.7046225618070787
C 13.40209411 10.52769677 15.35530276 -1.6190361329459637 1.4345082207464857 0.14821373491164416
C 9.37529620 13.86277554 13.67490688 -0.8338339049117824 -3.05126520387635 -1.8014863331300661
C 9.03944765 12.49212177 13.17670902 -0.048759245844372745 -0.7721970972875457 -1.3548192161549448
C 9.52146734 11.48758825 14.08502141 0.4268623443207922 0.5718577748138308 0.9385445934945916
C 10.20711040 12.18464398 15.15792172 0.6110502620558919 2.041508367010468 0.34775979607987123
C 10.14928451 13.62528443 14.85165369 -0.4955754881071272 0.2526315094990631 0.6031022660387297
C 10.16245294 9.96091172 12.30896619 -1.1927591344454123 0.8482388934219143 -2.713638860483398
C 11.39005861 9.23909639 11.96296782 -0.8668581949023365 -0.135565041861815 1.3538692185217647
C 12.05191575 9.13992755 13.22604385 1.2208589513666173 -0.3093300953411737 0.40055743371170693
C 11.27745861 9.76764209 14.28148979 -0.39574990015640504 0.20330640471959405 -0.13917373916766854
C 10.05086955 10.26853314 13.67911656 0.9090727255484873 -0.23301141135608266 0.25886954007602414
C 14.11631430 9.42552791 12.05297133 0.2681095242613638 -1.0572971776966422 -2.7832610326979395
C 15.17744503 10.26409302 12.29815925 3.1162329416586485 1.944847257333856 2.513271675455137
C 15.19300839 10.60691984 13.73980582 1.052054872038498 -0.3656276993783897 -1.8586905200713697
C 14.12739873 9.93094343 14.31678608 -1.7535422705141595 -0.2960064603301549 1.413095584491779
C 13.44990024 9.22053010 13.24506930 -2.0551111501937354 -0.7390583923454219 1.9417347948382757
C 15.88891644 12.90609637 13.17305091 0.052089801594385476 1.0874664456091532 0.7165084763372145
C 15.39045279 14.22259550 13.68605674 0.4027274936327645 -1.846334162434016 -2.846937944743651
C 14.64991196 13.91270078 14.85993182 0.5637314612240795 1.1661325367241584 0.534673934899634
C 14.81981568 12.51811256 15.24197769 -1.2660113297882494 0.5020779923752098 -0.49511694289983926
C 15.47916715 11.88491800 14.10455269 0.973646582508577 1.1951801194242486 1.5073560495930862
C 12.99204492 15.68122774 14.27580802 0.5228254970154473 -0.6569332011136669 -2.666349650834841
C 11.55720021 15.52422156 14.23695038 -1.5265665576449354 0.041732105269405725 -2.2726359437043118
C 11.18841869 14.49160830 15.15762868 0.7083879301004004 -0.2656862317925656 0.3129779974502783
C 12.44227082 13.98029660 15.74349826 -2.36842969886798 0.5724414903880054 -0.00879757833698608
C 13.49992570 14.65596128 15.10694259 1.3422169425700026 -0.630577124402421 1.7090958091072974
C 11.52475389 15.81362880 11.70390216 0.6471578649693334 -0.23250737277657693 1.2252835526877917
C 10.85085513 15.09169555 10.63793761 1.029291865127784 -1.158213634960426 -0.5484317779362159
C 9.75866698 14.42479119 11.24895299 -0.7224496308863614 -0.2736928528515066 -0.021993770577466286
C 9.69448489 14.75365163 12.65864418 1.1941853622373513 0.72327949670345 1.5680523635664247
C 10.83408688 15.57760857 12.96373243 0.7587339303931464 1.0175561802014081 0.766042776523516
C 9.43050951 13.15121738 10.82206596 0.11211449554526239 -1.262895294343424 -0.8756245276704815
C 10.18398760 12.45006670 9.78495961 0.8966710825010217 0.6833021635222263 -0.07143604321313764
C 10.37225355 11.05247892 10.17138138 -0.6371332116991714 1.5723083196510423 -1.7174905629994475
C 9.64571773 10.90243853 11.37055521 0.6055682831878902 -2.440722826609075 1.7839192602817948
C 9.09388471 12.14031099 11.78187511 -0.6181842808338307 1.251474307654238 2.3828856802239398
C 11.53193962 10.39316154 9.84910332 0.993129642526146 -2.3811009239284373 0.28741245230371243
C 12.67346352 10.97887208 9.17974197 -1.2298446458147951 2.2232467414034773 0.4346785418495446
C 13.82782429 10.49721371 9.88125607 2.590959461931761 1.1419837182912964 -0.8359946565734361
C 13.50990188 9.46623036 10.78483847 -1.1019952998826994 -0.5539118395699919 1.1690797957222376
C 12.09078879 9.34020760 10.76204056 -2.1722364245017776 1.6179140319407763 0.08713829623779182
C 14.93243330 11.35700891 10.17681736 -0.9702554828803932 -1.5537587790694183 -0.10643935215468524
C 14.76886002 12.71791584 9.82109366 -0.04902738101659142 0.9298332711711791 0.2065673304406437
C 15.43103629 13.46957273 10.85242397 -0.45404526610980755 2.09646080910014 0.18846782625193664
C 15.97084511 12.59148229 11.82623408 0.35977836686220893 -0.6407938995157285 1.4245662871570524
C 15.68876995 11.22146130 11.46622329 -1.8392434404382072 0.47058543781719475 -3.5556887249233475
C 14.91720322 14.72776376 11.27700830 -0.08720009462363396 -1.0926751042066918 -0.3356550570911239
C 13.65281891 15.16539731 10.73524177 1.435667194652723 1.237984895481994 1.1959042647783698
C 12.91117783 15.86138804 11.78876510 -0.27582781126005873 -0.256648847452697 -1.355350547340035
C 13.64476469 15.73050066 13.01354066 -0.48618640592275153 1.350642075551942 -0.4415303982128343
C 14.87314704 15.07149155 12.66558382 0.5090085882342835 -0.7010266581872466 2.6949365043641254
C 13.07856344 14.47023357 9.73341025 -2.485940895178985 -0.00979534823718898 -0.8033280999338714
C 13.56691915 13.23814927 9.27808641 2.724768628196237 -1.185713395537649 -0.5281609880436683
C 12.52801358 12.37425417 8.87542743 -0.7260138448569028 -1.128454432897962 0.746560684675021
C 11.26399117 13.11690658 9.16693548 -0.5029032292645403 -3.684183297204338 -0.4572861929929542
C 11.61780476 14.30220511 9.71062469 0.7380568373487346 5.512827104222751 1.4773563054087615
